(written by ASE)

8 atoms
8 atom types

0.0      5.4299999999999997  xlo xhi
0.0      5.4299999999999997  ylo yhi
0.0      5.4299999999999997  zlo zhi

Atoms # atomic

     1   1                       0                       0                       0
     2   2      1.3574999999999999      1.3574999999999999      1.3574999999999999
     3   3                       0      2.7149999999999999      2.7149999999999999
     4   4      1.3574999999999999      4.0724999999999998      4.0724999999999998
     5   5      2.7149999999999999                       0      2.7149999999999999
     6   6      4.0724999999999998      1.3574999999999999      4.0724999999999998
     7   7      2.7149999999999999      2.7149999999999999                       0
     8   8      4.0724999999999998      4.0724999999999998      1.3574999999999999
