7
Lattice="5.43 0.0 0.0 0.0 5.43 0.0 0.0 0.0 5.43" Properties=species:S:1:pos:R:3:forces:R:3 energy=-17.297195434570312 free_energy=-17.297195434570312 stress="0.06682341545820236 -0.018967995420098305 0.000864848610945046 -0.018967995420098305 0.06067716330289841 0.016584569588303566 0.000864848610945046 0.016584569588303566 0.06286048144102097" pbc="T T T"
H        0.00000000       0.00000000       0.00000000      -0.30053419      -0.32009238      -1.01122296
He       1.35750000       1.35750000       1.35750000       0.07061169      -0.07752970       0.24921373
Be       1.35750000       4.07250000       4.07250000       1.29784381       0.14925879       1.02551937
B        2.71500000       0.00000000       2.71500000       1.33896518      -0.71919143       0.42371842
C        4.07250000       1.35750000       4.07250000      -1.17923713      -0.79560536       0.14606810
N        2.71500000       2.71500000       0.00000000       0.08353420       0.64340198      -1.48665309
O        4.07250000       4.07250000       1.35750000      -1.31118345       1.11975813       0.65335619
