ITEM: TIMESTEP
0
ITEM: NUMBER OF ATOMS
768
ITEM: BOX BOUNDS xy xz yz pp pp pp
0.0000000000000000e+00 2.3720282300000001e+01 3.4607096799999999e+00
0.0000000000000000e+00 2.0742237880000001e+01 0.0000000000000000e+00
0.0000000000000000e+00 2.0526286599999999e+01 0.0000000000000000e+00
ITEM: ATOMS id type x y z fx fy fz
1 1 10.0786 8.73753 7.46334 0.626752 1.41805 1.12406
2 1 9.43739 3.62109 2.41758 -2.51664 -2.41237 3.09139
3 1 8.95523 1.01658 0.30136 1.58662 4.11487 -3.87381
4 1 10.0568 8.87631 2.35009 2.6769 0.555093 -3.4363
5 1 9.75639 6.30305 0.183031 -1.3024 -3.79002 3.62324
6 1 8.91444 1.06675 5.542 -2.25711 1.87809 -5.81456
7 1 9.79081 6.26491 5.22104 -4.94546 -4.62503 3.31258
8 1 4.41793 3.81789 2.39528 -3.78363 -5.94886 1.09572
9 1 2.17257 4.11563 4.98715 3.12582 4.20253 -1.3415
10 1 1.66418 1.51957 2.91326 2.41307 0.558515 -1.62562
11 1 5.17465 8.94063 2.34566 -0.635906 3.48583 3.15482
12 1 2.85135 9.31926 4.96913 -1.37228 -0.0699208 1.86587
13 1 5.06412 8.89798 7.34081 0.283173 -1.08528 3.1193
14 1 2.43172 6.7361 7.90087 -1.54803 0.94677 -0.54782
15 1 4.79358 6.33415 5.3047 -2.4506 -0.489424 -3.30599
16 1 4.38084 3.71777 7.50515 -2.29375 4.36872 -4.47382
17 1 2.1674 4.19219 10.1499 -0.380863 -2.18364 4.10822
18 1 1.7274 1.53805 8.11741 0.520419 -3.77073 -6.91582
19 1 3.8141 1.1276 5.36341 -3.00199 2.43107 0.284958
20 1 2.91125 9.28503 10.0547 3.32198 4.27195 -0.376316
21 1 2.43509 6.79223 2.84273 -1.77695 -1.97025 -6.00735
22 1 4.63829 6.35818 0.0649531 5.79566 -3.35501 1.63427
23 1 3.96862 1.21993 0.311492 -2.68633 -4.72397 0.6238
24 1 7.95946 9.3092 9.99875 0.522041 1.25776 0.113516
25 1 7.20954 4.10125 10.0676 2.40162 3.98912 2.71169
26 1 7.97413 9.3102 4.88565 2.98977 -2.87557 -2.52702
27 1 7.48292 6.67095 2.71417 4.83425 -1.51115 -3.45592
28 1 7.22354 4.09214 4.91151 3.57052 -2.30987 1.56389
29 1 6.7711 1.50791 2.82108 -0.893116 4.86477 4.4016
30 1 7.6004 6.67279 7.89548 0.125757 -0.204173 -4.43101
31 1 9.41002 3.69516 7.5597 -1.29871 -2.84987 4.31533
32 1 6.77375 1.5056 7.98091 -3.67166 -2.9963 -5.9756
33 2 10.0903 1.85325 6.96757 1.12622 -0.435227 0.610765
34 2 10.9951 7.08138 6.69601 -0.684069 0.54457 0.631906
35 2 11.2897 9.60939 6.04904 1.83039 -1.87468 1.59693
36 2 10.788 6.95961 1.75183 0.888019 -0.996731 1.29734
37 2 8.32036 2.47159 3.9183 0.544762 -1.79931 0.0938183
38 2 10.0721 1.65855 1.87163 0.805999 -1.05965 -1.28524
39 2 10.4846 4.35174 0.839576 -0.264623 -0.101596 0.680827
40 2 9.58544 10.2553 3.81737 0.951912 -1.18505 0.540175
41 2 9.15582 7.61786 3.82383 0.245595 0.945517 -0.363152
42 2 11.2828 9.42551 0.896224 -0.191535 0.0143206 0.0111229
43 2 10.6187 4.46991 6.09305 0.805837 -0.241008 -0.310672
44 2 3.63624 5.03045 3.82117 -0.834444 0.514976 0.0697668
45 2 3.22065 2.54566 3.96055 1.27618 -1.17114 0.480699
46 2 5.13228 1.96509 1.754 -0.792716 -1.32602 -1.40424
47 2 0.499723 0.85951 4.41955 -0.849159 0.678876 0.111556
48 2 4.49795 10.2551 3.94724 1.33415 -0.707661 0.831279
49 2 4.08832 7.74684 3.86494 -1.23739 -0.177705 1.05749
50 2 5.90127 7.07174 1.6653 -0.446552 0.825208 -1.33441
51 2 6.32939 9.71905 0.937144 1.50557 1.33762 0.143766
52 2 5.44335 4.45855 0.808635 -0.0597811 0.224561 -1.28542
53 2 3.54898 7.91811 6.27738 0.351265 0.0981473 1.7615
54 2 3.21455 5.3337 6.39781 0.939982 0.348324 -0.0332323
55 2 4.08744 7.79256 8.94431 -0.64103 -0.071451 -0.440137
56 2 5.89611 7.08976 6.71714 -0.418819 -1.22602 -0.253027
57 2 1.22356 5.98776 9.31853 2.07335 0.238005 -1.07033
58 2 6.3615 9.67587 6.06079 0.21165 0.498096 -0.255846
59 2 3.62497 5.17884 8.87968 0.252873 0.104822 1.33172
60 2 2.79092 2.70312 6.5063 0.208436 0.336271 -1.86944
61 2 2.20642 0.121993 6.50943 1.12716 -0.681967 0.138273
62 2 3.36642 2.52336 9.09596 0.273339 1.72656 -0.782344
63 2 5.04873 1.85222 6.87617 0.965517 -0.917907 0.869081
64 2 0.504634 0.781011 9.52305 0.150542 -0.339517 0.404684
65 2 0.952754 3.34557 8.69554 1.14062 -0.136196 1.63411
66 2 5.46251 4.47528 6.00302 0.309914 -1.65475 -0.362362
67 2 4.49818 10.3043 8.9576 1.80063 -0.209468 -0.241889
68 2 1.73952 8.56369 8.58555 0.661858 1.2314 0.323196
69 2 3.62337 7.98128 1.17333 -0.319374 -0.249708 0.705268
70 2 3.16119 5.40722 1.22907 -0.860607 -0.671905 1.71755
71 2 1.31419 5.97277 4.19215 -0.495784 -1.97 -0.828089
72 2 2.79848 2.74889 1.27176 -0.865932 0.35162 1.20262
73 2 2.29398 0.169842 1.46074 -0.19408 -0.870903 0.619165
74 2 0.967076 3.44189 3.47136 1.05147 -1.01035 -0.865702
75 2 1.75476 8.54415 3.43405 -0.844109 1.06733 -0.692451
76 2 9.58968 10.1102 9.02265 -0.421834 -0.194739 0.834652
77 2 9.1201 7.60109 8.90873 -0.00506388 -0.926787 1.96393
78 2 8.21691 5.34991 1.37662 -0.631162 -0.36435 -0.608824
79 2 6.43084 5.94959 4.24019 -0.872564 0.438325 0.491221
80 2 8.69455 4.99652 3.88812 0.699347 1.69825 -0.547507
81 2 7.96834 2.69479 1.20585 -1.84915 -1.19821 0.279083
82 2 7.33314 0.16346 1.36457 0.214279 -1.61749 0.156976
83 2 5.57831 0.814114 4.2835 -0.437376 -0.722207 -0.0371734
84 2 6.1297 3.45446 3.35502 -1.44616 -0.0831632 -0.909331
85 2 8.55281 7.89834 1.1527 -0.297586 1.89518 0.057077
86 2 6.84048 8.56744 3.45602 0.629128 -0.113216 0.332995
87 2 7.33002 0.0812773 6.53509 0.373673 0.596151 0.691831
88 2 5.55796 0.848094 9.39286 -0.839504 0.219879 0.248445
89 2 8.58051 7.87084 6.29049 0.376011 -1.54368 0.744215
90 2 8.28348 5.22136 6.47632 -1.67028 0.559447 0.413534
91 2 6.42128 6.05985 9.37656 -0.173574 -0.302665 -0.704088
92 2 6.82699 8.52585 8.47853 -0.55592 2.20709 1.20144
93 2 8.68866 5.092 8.99427 0.119887 -1.48983 -0.689061
94 2 7.84842 2.70204 6.42491 -0.50573 0.0727567 -0.00256293
95 2 8.25797 2.46458 9.01312 2.23759 -0.641529 1.85932
96 2 6.08861 3.44495 8.57088 -0.243244 -0.568588 0.731391
385 1 10.0786 8.73753 17.7265 -0.53943 -0.353589 -4.68718
386 1 9.43739 3.62109 12.6807 -5.30545 3.9483 -4.642
387 1 8.95523 1.01658 10.5645 -1.29472 5.01176 -2.11487
388 1 10.0568 8.87631 12.6132 -1.57166 3.34917 2.82287
389 1 9.75639 6.30305 10.4462 -0.395588 -0.528994 -3.52708
390 1 8.91444 1.06675 15.8051 -1.60503 1.03898 -4.21476
391 1 9.79081 6.26491 15.4842 -4.42856 -0.0290915 -1.50186
392 1 4.41793 3.81789 12.6584 1.46993 0.630745 -5.61178
393 1 2.17257 4.11563 15.2503 -0.952568 1.43521 5.56399
394 1 1.66418 1.51957 13.1764 3.99702 1.23266 -3.66064
395 1 5.17465 8.94063 12.6088 0.151075 2.33969 2.6709
396 1 2.85135 9.31926 15.2323 -0.554924 -4.0498 -0.635389
397 1 5.06412 8.89798 17.604 2.9434 4.22594 5.91518
398 1 2.43172 6.7361 18.164 2.37546 4.78929 -0.309969
399 1 4.79358 6.33415 15.5678 2.22066 -1.36384 -1.04741
400 1 4.38084 3.71777 17.7683 -2.41683 -2.07215 2.62943
401 1 2.1674 4.19219 20.413 0.568765 0.415611 -4.36358
402 1 1.7274 1.53805 18.3806 -4.05412 -0.8609 -1.16776
403 1 3.8141 1.1276 15.6266 -2.91599 -1.13467 -2.21887
404 1 2.91125 9.28503 20.3179 1.13923 -0.207398 4.42773
405 1 2.43509 6.79223 13.1059 -2.0972 -4.9069 -2.20866
406 1 4.63829 6.35818 10.3281 -2.61119 1.19703 5.16277
407 1 3.96862 1.21993 10.5746 1.97721 1.95751 3.20998
408 1 7.95946 9.3092 20.2619 -5.5339 1.42612 2.51162
409 1 7.20954 4.10125 20.3307 -4.66406 -1.32846 3.15443
410 1 7.97413 9.3102 15.1488 0.358435 2.71394 1.23983
411 1 7.48292 6.67095 12.9773 0.9188 3.1846 2.38708
412 1 7.22354 4.09214 15.1747 2.75506 -1.51662 -1.86946
413 1 6.7711 1.50791 13.0842 -1.37678 -0.903802 -2.60942
414 1 7.6004 6.67279 18.1586 -1.99874 1.44838 -1.01216
415 1 9.41002 3.69516 17.8228 0.806589 -1.04549 3.87724
416 1 6.77375 1.5056 18.2441 0.0923977 4.47913 -0.235822
417 2 10.0903 1.85325 17.2307 -0.331741 -0.986631 0.125485
418 2 10.9951 7.08138 16.9592 0.662271 -1.11392 0.0048256
419 2 11.2897 9.60939 16.3122 -0.41788 -1.67039 -0.849675
420 2 10.788 6.95961 12.015 1.60331 0.593781 0.264321
421 2 8.32036 2.47159 14.1814 -1.50661 -2.05434 0.81875
422 2 10.0721 1.65855 12.1348 0.696109 -0.646369 0.59518
423 2 10.4846 4.35174 11.1027 1.61246 0.877897 1.2061
424 2 9.58544 10.2553 14.0805 0.64419 0.500775 -0.130973
425 2 9.15582 7.61786 14.087 0.217795 0.543484 -0.951903
426 2 11.2828 9.42551 11.1594 2.21066 0.960443 -1.73656
427 2 10.6187 4.46991 16.3562 0.464328 -1.22924 -1.37755
428 2 3.63624 5.03045 14.0843 1.53472 2.13938 0.561227
429 2 3.22065 2.54566 14.2237 0.240819 -0.60352 1.10038
430 2 5.13228 1.96509 12.0171 0.533832 0.528556 0.384308
431 2 0.499723 0.85951 14.6827 -0.43874 -1.07758 -0.644611
432 2 4.49795 10.2551 14.2104 -0.673184 0.551539 -0.897152
433 2 4.08832 7.74684 14.1281 -1.05249 -1.69976 0.97221
434 2 5.90127 7.07174 11.9284 -0.860081 -0.414948 0.229402
435 2 6.32939 9.71905 11.2003 1.51505 0.778594 -1.56011
436 2 5.44335 4.45855 11.0718 0.389842 1.15899 -0.263727
437 2 3.54898 7.91811 16.5405 0.325613 0.260454 0.920763
438 2 3.21455 5.3337 16.661 0.911368 -0.151696 0.654893
439 2 4.08744 7.79256 19.2074 -1.08944 -2.29758 -0.566866
440 2 5.89611 7.08976 16.9803 -0.348019 0.501755 0.576402
441 2 1.22356 5.98776 19.5817 -0.0809627 0.117098 0.0775273
442 2 6.3615 9.67587 16.3239 0.856614 -0.26004 0.696526
443 2 3.62497 5.17884 19.1428 -0.838131 -0.885799 -0.76564
444 2 2.79092 2.70312 16.7694 0.211112 -0.133612 -0.230387
445 2 2.20642 0.121993 16.7726 1.87454 1.76207 0.774587
446 2 3.36642 2.52336 19.3591 -0.543134 -0.448926 -0.232795
447 2 5.04873 1.85222 17.1393 -0.0401704 0.0569876 -1.12398
448 2 0.504634 0.781011 19.7862 -1.42358 1.66831 -0.808461
449 2 0.952754 3.34557 18.9587 1.26306 -0.0321165 -0.888236
450 2 5.46251 4.47528 16.2662 1.03967 -0.0672832 -0.722031
451 2 4.49818 10.3043 19.2207 -0.116947 0.242521 0.648023
452 2 1.73952 8.56369 18.8487 -1.00421 0.257665 -0.924153
453 2 3.62337 7.98128 11.4365 -0.947999 -0.351688 0.841638
454 2 3.16119 5.40722 11.4922 -0.645871 1.54158 2.45939
455 2 1.31419 5.97277 14.4553 -0.128336 -1.37514 -0.124641
456 2 2.79848 2.74889 11.5349 0.154043 -0.769254 0.409386
457 2 2.29398 0.169842 11.7239 1.03588 -0.755044 -2.28951
458 2 0.967076 3.44189 13.7345 -0.204175 -1.00961 0.275885
459 2 1.75476 8.54415 13.6972 0.306744 2.37736 0.753773
460 2 9.58968 10.1102 19.2858 -0.279392 0.651507 0.433951
461 2 9.1201 7.60109 19.1719 0.215463 0.622657 1.19317
462 2 8.21691 5.34991 11.6398 0.237186 -1.11689 -1.23638
463 2 6.43084 5.94959 14.5033 1.08633 0.0410408 1.00901
464 2 8.69455 4.99652 14.1513 1.71928 1.01686 -1.18921
465 2 7.96834 2.69479 11.469 -2.47307 1.16496 -0.598529
466 2 7.33314 0.16346 11.6277 0.932895 -1.60826 -0.674452
467 2 5.57831 0.814114 14.5466 -1.73333 1.63366 -1.48715
468 2 6.1297 3.45446 13.6182 -0.523184 1.36141 1.05273
469 2 8.55281 7.89834 11.4158 0.153832 0.0684353 0.270441
470 2 6.84048 8.56744 13.7192 -0.659713 -0.306935 -0.507934
471 2 7.33002 0.0812773 16.7982 -1.09749 0.565345 -0.08525
472 2 5.55796 0.848094 19.656 -0.388923 -0.317047 0.776554
473 2 8.58051 7.87084 16.5536 1.54761 -1.90569 -0.572337
474 2 8.28348 5.22136 16.7395 -1.46035 -0.206553 0.0666877
475 2 6.42128 6.05985 19.6397 0.712731 0.269915 -0.16491
476 2 6.82699 8.52585 18.7417 -0.499639 0.945928 -0.0285118
477 2 8.68866 5.092 19.2574 -0.925503 -0.0257815 0.538251
478 2 7.84842 2.70204 16.6881 -0.470506 1.10171 0.440311
479 2 8.25797 2.46458 19.2763 -0.0247674 0.984683 2.17324
480 2 6.08861 3.44495 18.834 -1.4046 0.84157 0.523994
193 1 11.8089 19.1086 7.46334 3.43655 5.44699 1.27718
194 1 11.1677 13.9922 2.41758 -5.45746 2.58676 -1.68017
195 1 10.6856 11.3877 0.30136 0.775117 3.53084 -0.109071
196 1 11.7872 19.2474 2.35009 0.0269601 0.466129 -1.68163
197 1 11.4867 16.6742 0.183031 -0.982433 3.18198 0.22947
198 1 10.6448 11.4379 5.542 -0.448129 3.04292 -4.75964
199 1 11.5212 16.636 5.22104 1.69123 -0.844285 -0.520145
200 1 6.14828 14.189 2.39528 -0.403531 1.89008 0.494079
201 1 3.90293 14.4867 4.98715 1.25417 -2.78362 -1.45029
202 1 3.39453 11.8907 2.91326 -4.01199 -3.73163 -0.905637
203 1 6.90501 19.3118 2.34566 2.34794 -3.75287 1.45368
204 1 4.58171 19.6904 4.96913 4.42891 -4.47589 -0.829302
205 1 6.79448 19.2691 7.34081 5.82547 1.97469 2.67518
206 1 4.16207 17.1072 7.90087 2.16524 2.36825 -1.55686
207 1 6.52394 16.7053 5.3047 2.01408 0.455852 -2.59295
208 1 6.11119 14.0889 7.50515 3.45364 1.32203 -0.415033
209 1 3.89776 14.5633 10.1499 1.08908 -0.337263 -1.89658
210 1 3.45776 11.9092 8.11741 0.609011 -3.61227 2.32409
211 1 5.54445 11.4987 5.36341 -0.303765 -2.69412 3.03494
212 1 4.6416 19.6561 10.0547 -2.04726 1.74826 -0.295588
213 1 4.16544 17.1633 2.84273 5.75099 -4.02823 1.79354
214 1 6.36864 16.7293 0.0649531 0.143199 -2.39824 -0.116627
215 1 5.69898 11.5911 0.311492 -1.99105 1.39518 -3.35537
216 1 9.68981 19.6803 9.99875 2.27561 -0.104699 -2.37678
217 1 8.93989 14.4724 10.0676 1.70074 -0.848533 -2.02906
218 1 9.70449 19.6813 4.88565 0.210773 -4.23809 4.66169
219 1 9.21328 17.0421 2.71417 -1.50762 -3.05964 1.95632
220 1 8.9539 14.4633 4.91151 -1.42069 3.05913 4.8794
221 1 8.50146 11.879 2.82108 3.03998 2.7745 2.8447
222 1 9.33076 17.0439 7.89548 3.05006 -1.72504 -0.237292
223 1 11.1404 14.0663 7.5597 -0.879311 4.37117 -2.68075
224 1 8.5041 11.8767 7.98091 -2.81654 3.14607 -5.65223
225 2 11.8207 12.2244 6.96757 -0.119481 -0.67902 -1.46955
226 2 12.7255 17.4525 6.69601 -1.18055 0.253379 -0.639867
227 2 13.02 19.9805 6.04904 2.02098 0.358282 1.33755
228 2 12.5184 17.3307 1.75183 1.5871 -0.506852 -0.638926
229 2 10.0507 12.8427 3.9183 1.51 -1.73227 -0.729666
230 2 11.8025 12.0297 1.87163 0.92945 -0.323664 -0.318249
231 2 12.215 14.7229 0.839576 0.905837 -0.429929 -0.0459962
232 2 11.3158 20.6264 3.81737 0.624281 0.212364 -0.218498
233 2 10.8862 17.989 3.82383 -1.4341 0.224443 -1.47163
234 2 13.0132 19.7966 0.896224 2.02578 0.979601 -0.199163
235 2 12.3491 14.841 6.09305 0.40802 1.24178 -0.466159
236 2 5.36659 15.4016 3.82117 -0.730491 1.60953 0.135457
237 2 4.95101 12.9168 3.96055 0.321699 -0.151193 -0.935159
238 2 6.86264 12.3362 1.754 -1.80428 -0.328766 -1.45023
239 2 2.23008 11.2306 4.41955 0.415372 1.11888 -1.29788
240 2 6.22831 20.6263 3.94724 0.0631097 0.170497 -0.196129
241 2 5.81867 18.118 3.86494 -0.461751 -0.636029 0.125033
242 2 7.63163 17.4429 1.6653 -0.938991 0.586724 -1.26104
243 2 8.05975 20.0902 0.937144 0.92446 0.207917 -1.14842
244 2 7.1737 14.8297 0.808635 -1.16338 1.74327 -1.15189
245 2 5.27933 18.2892 6.27738 0.380752 0.823407 1.02016
246 2 4.9449 15.7048 6.39781 0.550644 -0.40828 -0.173039
247 2 5.8178 18.1637 8.94431 -2.02089 -1.37811 0.570831
248 2 7.62646 17.4609 6.71714 2.03462 0.625507 -0.0409287
249 2 2.95392 16.3589 9.31853 1.90051 -1.65651 0.0254631
250 2 8.09185 20.047 6.06079 -0.323047 1.76078 0.111408
251 2 5.35532 15.55 8.87968 0.16097 -0.299758 0.823548
252 2 4.52127 13.0742 6.5063 0.594852 1.88756 0.373327
253 2 3.93678 10.4931 6.50943 -0.73608 0.538924 -1.35317
254 2 5.09678 12.8945 9.09596 -0.270713 -0.0204943 -0.569668
255 2 6.77909 12.2233 6.87617 -0.138424 0.0601481 -0.488381
256 2 2.23499 11.1521 9.52305 0.331493 1.69238 -0.316688
257 2 2.68311 13.7167 8.69554 0.946824 1.74694 1.35123
258 2 7.19287 14.8464 6.00302 1.85595 -1.66934 0.886743
259 2 6.22853 20.6754 8.9576 0.907298 0.711108 1.28935
260 2 3.46988 18.9348 8.58555 0.14134 0.022389 -0.991146
261 2 5.35373 18.3524 1.17333 0.574644 -1.2797 -0.158094
262 2 4.89154 15.7783 1.22907 0.762276 -0.983731 2.42774
263 2 3.04454 16.3439 4.19215 -0.493362 0.0310372 1.82159
264 2 4.52884 13.12 1.27176 -0.539559 1.49564 0.706351
265 2 4.02433 10.541 1.46074 -1.00396 1.3045 -1.06239
266 2 2.69743 13.813 3.47136 0.472455 -0.25307 0.971063
267 2 3.48512 18.9153 3.43405 -2.30566 0.729274 0.85678
268 2 11.32 20.4813 9.02265 -0.99241 0.178498 -1.39316
269 2 10.8505 17.9722 8.90873 0.846611 0.164509 1.28878
270 2 9.94726 15.721 1.37662 1.23543 0.0917416 -1.77827
271 2 8.16119 16.3207 4.24019 -0.762614 -0.916505 -1.45203
272 2 10.4249 15.3676 3.88812 1.01545 0.835034 -2.28313
273 2 9.69869 13.0659 1.20585 -1.87189 -0.736334 1.21618
274 2 9.06349 10.5346 1.36457 -1.52943 -1.87624 -0.771439
275 2 7.30866 11.1852 4.2835 -1.39083 -0.312289 -0.949655
276 2 7.86005 13.8256 3.35502 0.355738 -1.06589 -1.14333
277 2 10.2832 18.2695 1.1527 -0.445659 0.656515 1.08677
278 2 8.57083 18.9386 3.45602 0.268551 -0.686307 0.298634
279 2 9.06038 10.4524 6.53509 0.119958 1.11818 0.328044
280 2 7.28831 11.2192 9.39286 -1.25859 0.66026 -1.04497
281 2 10.3109 18.242 6.29049 1.20087 -0.069297 -0.566705
282 2 10.0138 15.5925 6.47632 -1.4477 0.665781 -0.208349
283 2 8.15163 16.431 9.37656 -0.837264 -0.313183 -0.375486
284 2 8.55735 18.897 8.47853 1.08499 1.49146 0.883803
285 2 10.419 15.4631 8.99427 0.374731 -0.980011 0.648647
286 2 9.57878 13.0732 6.42491 -1.68523 1.41293 -1.39572
287 2 9.98832 12.8357 9.01312 0.290512 -1.21055 -0.454513
288 2 7.81897 13.8161 8.57088 -2.02698 0.430883 0.962114
577 1 11.8089 19.1086 17.7265 6.14589 -0.320652 -0.498412
578 1 11.1677 13.9922 12.6807 1.4967 -3.41497 -4.67745
579 1 10.6856 11.3877 10.5645 2.75442 -1.37171 1.8244
580 1 11.7872 19.2474 12.6132 -0.483843 3.32771 1.76041
581 1 11.4867 16.6742 10.4462 3.68087 -0.722837 2.10079
582 1 10.6448 11.4379 15.8051 -4.21135 3.81032 1.17412
583 1 11.5212 16.636 15.4842 -0.329006 -0.0699404 3.63369
584 1 6.14828 14.189 12.6584 -2.9256 -2.2353 2.49002
585 1 3.90293 14.4867 15.2503 -0.793155 2.31383 5.69971
586 1 3.39453 11.8907 13.1764 3.4511 -0.10185 4.1144
587 1 6.90501 19.3118 12.6088 0.627388 2.91476 -1.39521
588 1 4.58171 19.6904 15.2323 -4.14497 2.08528 -4.62215
589 1 6.79448 19.2691 17.604 -3.99254 3.50754 -0.892586
590 1 4.16207 17.1072 18.164 4.58195 -3.93783 -4.82332
591 1 6.52394 16.7053 15.5678 -4.36527 -3.47198 3.63066
592 1 6.11119 14.0889 17.7683 4.28131 -3.47756 1.58904
593 1 3.89776 14.5633 20.413 -4.15275 -5.117 -0.507106
594 1 3.45776 11.9092 18.3806 3.14732 0.94507 0.170673
595 1 5.54445 11.4987 15.6266 -3.53695 -2.85928 -0.518941
596 1 4.6416 19.6561 20.3179 5.09316 2.67827 -1.13061
597 1 4.16544 17.1633 13.1059 4.97545 4.53669 -6.78218
598 1 6.36864 16.7293 10.3281 -1.8004 -3.06652 5.03168
599 1 5.69898 11.5911 10.5746 -5.96503 2.08476 -3.62958
600 1 9.68981 19.6803 20.2619 -1.32056 -1.56418 -1.24992
601 1 8.93989 14.4724 20.3307 -2.2428 -1.44031 2.06046
602 1 9.70449 19.6813 15.1488 1.06944 3.28898 4.65397
603 1 9.21328 17.0421 12.9773 -0.399902 0.00410341 1.73457
604 1 8.9539 14.4633 15.1747 -1.86191 -1.62227 -1.11925
605 1 8.50146 11.879 13.0842 -1.70775 -3.56816 -4.17829
606 1 9.33076 17.0439 18.1586 0.821233 -2.60563 -0.346129
607 1 11.1404 14.0663 17.8228 -1.38137 -2.98978 -3.6424
608 1 8.5041 11.8767 18.2441 2.97481 -2.11217 -3.79431
609 2 11.8207 12.2244 17.2307 1.96905 -1.54144 -0.411817
610 2 12.7255 17.4525 16.9592 0.444101 0.400238 -1.00006
611 2 13.02 19.9805 16.3122 0.242048 -0.239284 0.490379
612 2 12.5184 17.3307 12.015 1.77053 0.464022 -0.0756414
613 2 10.0507 12.8427 14.1814 0.35054 -1.83652 -0.71015
614 2 11.8025 12.0297 12.1348 -0.77829 1.63792 1.04812
615 2 12.215 14.7229 11.1027 0.942716 1.59645 0.250843
616 2 11.3158 20.6264 14.0805 -1.11322 -0.466472 1.50099
617 2 10.8862 17.989 14.087 -1.84177 1.08622 -1.33994
618 2 13.0132 19.7966 11.1594 2.24144 0.580801 -0.261872
619 2 12.3491 14.841 16.3562 1.19669 0.548515 -0.510907
620 2 5.36659 15.4016 14.0843 0.292062 0.984281 -0.853147
621 2 4.95101 12.9168 14.2237 1.56291 -1.71735 1.01854
622 2 6.86264 12.3362 12.0171 -0.252615 -0.782736 -1.30536
623 2 2.23008 11.2306 14.6827 0.435416 -0.832311 1.10722
624 2 6.22831 20.6263 14.2104 1.34247 1.82392 -0.5295
625 2 5.81867 18.118 14.1281 -0.205857 -0.294527 -1.6482
626 2 7.63163 17.4429 11.9284 -2.33978 0.362014 -1.99135
627 2 8.05975 20.0902 11.2003 0.512521 0.853521 -1.85938
628 2 7.1737 14.8297 11.0718 -0.784986 1.24748 0.29212
629 2 5.27933 18.2892 16.5405 0.787607 -0.701326 1.41598
630 2 4.9449 15.7048 16.661 1.01817 1.00166 1.08033
631 2 5.8178 18.1637 19.2074 -0.497344 -1.30969 0.0556887
632 2 7.62646 17.4609 16.9803 1.90408 -0.826376 1.7719
633 2 2.95392 16.3589 19.5817 1.85964 -1.35503 0.589308
634 2 8.09185 20.047 16.3239 -0.926326 -0.710068 -1.63971
635 2 5.35532 15.55 19.1428 0.449845 -0.298821 0.259557
636 2 4.52127 13.0742 16.7694 -1.35135 -0.957132 -1.64378
637 2 3.93678 10.4931 16.7726 0.159563 0.277629 -1.39084
638 2 5.09678 12.8945 19.3591 -0.537988 -0.304089 1.07208
639 2 6.77909 12.2233 17.1393 0.269312 -0.995749 0.218934
640 2 2.23499 11.1521 19.7862 0.691371 0.10945 1.32254
641 2 2.68311 13.7167 18.9587 -0.841123 0.873881 0.37291
642 2 7.19287 14.8464 16.2662 -0.395881 -1.53056 -0.427355
643 2 6.22853 20.6754 19.2207 1.99932 -1.40484 -0.0789156
644 2 3.46988 18.9348 18.8487 0.535513 1.18474 0.638855
645 2 5.35373 18.3524 11.4365 0.0699378 -1.4442 -0.267043
646 2 4.89154 15.7783 11.4922 -1.14447 1.71447 0.239692
647 2 3.04454 16.3439 14.4553 1.18906 -1.88634 1.32533
648 2 4.52884 13.12 11.5349 0.411847 1.06609 1.11543
649 2 4.02433 10.541 11.7239 -0.901266 -0.617253 -0.558651
650 2 2.69743 13.813 13.7345 1.19235 -0.713581 0.886085
651 2 3.48512 18.9153 13.6972 -1.24957 1.38637 -0.560893
652 2 11.32 20.4813 19.2858 -1.07237 0.83091 0.629686
653 2 10.8505 17.9722 19.1719 0.519437 -0.339113 2.00295
654 2 9.94726 15.721 11.6398 0.576129 -0.91086 0.255626
655 2 8.16119 16.3207 14.5033 0.0616453 -0.62146 -0.686585
656 2 10.4249 15.3676 14.1513 2.01375 0.691449 -2.3169
657 2 9.69869 13.0659 11.469 -1.80227 1.26432 -0.732355
658 2 9.06349 10.5346 11.6277 -0.612964 0.0389681 0.826542
659 2 7.30866 11.1852 14.5466 -1.87574 1.16058 0.121785
660 2 7.86005 13.8256 13.6182 0.582667 -0.341246 -0.917555
661 2 10.2832 18.2695 11.4158 -1.1719 -0.396092 0.925009
662 2 8.57083 18.9386 13.7192 1.06731 0.165876 1.07166
663 2 9.06038 10.4524 16.7982 -0.414853 0.55702 -0.107764
664 2 7.28831 11.2192 19.656 -0.278875 -0.68826 1.10258
665 2 10.3109 18.242 16.5536 -1.04041 -1.01932 -1.29257
666 2 10.0138 15.5925 16.7395 -0.369835 1.05591 0.65568
667 2 8.15163 16.431 19.6397 0.614907 -1.35306 1.06065
668 2 8.55735 18.897 18.7417 -0.986724 1.71787 1.58588
669 2 10.419 15.4631 19.2574 1.4568 -0.616996 0.144664
670 2 9.57878 13.0732 16.6881 -0.31362 0.943538 1.1402
671 2 9.98832 12.8357 19.2763 -0.253098 -0.240401 -0.234321
672 2 7.81897 13.8161 18.834 0.486676 -0.115417 0.69793
97 1 20.2084 8.73753 7.46334 2.94748 4.01434 -3.54548
98 1 19.5672 3.62109 2.41758 4.28448 4.18166 -0.0522117
99 1 19.085 1.01658 0.30136 -1.09085 -0.558418 1.36217
100 1 20.1866 8.87631 2.35009 5.40503 1.30896 0.689582
101 1 19.8862 6.30305 0.183031 -1.30206 0.117662 2.28673
102 1 19.0442 1.06675 5.542 3.60512 5.26814 -0.980012
103 1 19.9206 6.26491 5.22104 3.67102 -1.53491 -1.17747
104 1 14.5477 3.81789 2.39528 -5.31649 2.99491 -3.61842
105 1 12.3024 4.11563 4.98715 0.928293 -1.25742 4.40489
106 1 11.794 1.51957 2.91326 0.167419 2.4263 -3.91962
107 1 15.3044 8.94063 2.34566 -4.55837 1.63197 5.25051
108 1 12.9811 9.31926 4.96913 -2.2661 1.67023 2.46607
109 1 15.1939 8.89798 7.34081 3.53468 -1.14768 4.90124
110 1 12.5615 6.7361 7.90087 4.30329 -3.94818 -4.149
111 1 14.9234 6.33415 5.3047 0.303806 3.93846 -0.595457
112 1 14.5106 3.71777 7.50515 -4.794 2.84456 3.86701
113 1 12.2972 4.19219 10.1499 1.15361 -3.15942 1.91919
114 1 11.8572 1.53805 8.11741 -2.76875 -1.08905 -3.99673
115 1 13.9439 1.1276 5.36341 -2.17269 4.30577 3.22919
116 1 13.041 9.28503 10.0547 2.68517 1.26426 -5.09556
117 1 12.5649 6.79223 2.84273 2.38188 1.85206 2.09952
118 1 14.7681 6.35818 0.0649531 -2.16892 4.27374 5.00372
119 1 14.0984 1.21993 0.311492 -1.38005 -5.07595 0.596462
120 1 18.0892 9.3092 9.99875 3.09394 1.12656 1.16066
121 1 17.3393 4.10125 10.0676 -1.62321 -4.00055 1.23805
122 1 18.1039 9.3102 4.88565 -1.72175 3.06478 5.19906
123 1 17.6127 6.67095 2.71417 5.5928 2.19297 -0.351214
124 1 17.3533 4.09214 4.91151 0.660628 2.35677 1.75235
125 1 16.9009 1.50791 2.82108 0.364611 5.81219 -4.00273
126 1 17.7302 6.67279 7.89548 1.53919 -0.28662 -2.91402
127 1 19.5398 3.69516 7.5597 4.70664 1.35743 -4.12321
128 1 16.9035 1.5056 7.98091 0.388845 1.9147 -1.77824
129 2 20.2201 1.85325 6.96757 0.0110338 -0.257815 -1.03834
130 2 21.1249 7.08138 6.69601 -0.407163 -1.7565 0.950388
131 2 21.4195 9.60939 6.04904 1.93094 -0.82543 1.32912
132 2 20.9178 6.95961 1.75183 2.44715 1.30672 0.720287
133 2 18.4501 2.47159 3.9183 -0.788349 -1.71147 0.611571
134 2 20.2019 1.65855 1.87163 1.44783 -1.1162 0.431453
135 2 20.6144 4.35174 0.839576 0.552591 -0.309676 0.170745
136 2 19.7152 10.2553 3.81737 0.929724 0.0818912 1.52895
137 2 19.2856 7.61786 3.82383 0.228477 -0.826365 -0.893934
138 2 21.4126 9.42551 0.896224 1.61005 -0.250786 -1.39188
139 2 20.7485 4.46991 6.09305 0.878239 -1.29587 -0.459365
140 2 13.766 5.03045 3.82117 -0.5194 1.60511 0.720817
141 2 13.3504 2.54566 3.96055 -0.186909 -1.9547 -1.13522
142 2 15.2621 1.96509 1.754 -1.49414 -1.90519 -1.29578
143 2 10.6295 0.85951 4.41955 1.16202 1.04812 0.956648
144 2 14.6277 10.2551 3.94724 -0.559294 0.217297 -1.56362
145 2 14.2181 7.74684 3.86494 -0.825323 -0.741949 0.809989
146 2 16.0311 7.07174 1.6653 -0.26381 -1.32405 -1.32876
147 2 16.4592 9.71905 0.937144 1.04245 -1.2647 -1.30523
148 2 15.5731 4.45855 0.808635 -0.450945 0.627243 0.486056
149 2 13.6788 7.91811 6.27738 -1.05388 0.323798 0.381403
150 2 13.3443 5.3337 6.39781 -0.602687 0.697012 1.23673
151 2 14.2172 7.79256 8.94431 -1.36518 -2.15417 0.611686
152 2 16.0259 7.08976 6.71714 0.0444435 -1.03202 0.0997701
153 2 11.3534 5.98776 9.31853 2.24617 -1.46018 1.12815
154 2 16.4913 9.67587 6.06079 -0.533921 0.262503 -0.302469
155 2 13.7548 5.17884 8.87968 0.55894 1.31047 0.0516616
156 2 12.9207 2.70312 6.5063 -0.411642 -0.944897 -1.37289
157 2 12.3362 0.121993 6.50943 -0.318879 0.852093 -1.01069
158 2 13.4962 2.52336 9.09596 0.179285 0.0278938 -0.338079
159 2 15.1785 1.85222 6.87617 0.576358 -0.627746 -0.643214
160 2 10.6344 0.781011 9.52305 0.679736 -0.568146 -0.756323
161 2 11.0825 3.34557 8.69554 -0.230656 0.488101 -0.440506
162 2 15.5923 4.47528 6.00302 1.19589 -0.830846 0.867276
163 2 14.628 10.3043 8.9576 1.0602 -1.4211 -0.567012
164 2 11.8693 8.56369 8.58555 -0.653999 0.51954 -0.960969
165 2 13.7532 7.98128 1.17333 -1.06204 0.528012 -0.266264
166 2 13.291 5.40722 1.22907 1.09697 0.675279 1.63701
167 2 11.444 5.97277 4.19215 0.825675 -1.07351 0.237751
168 2 12.9283 2.74889 1.27176 -1.13138 0.821949 -0.268672
169 2 12.4238 0.169842 1.46074 -0.104798 -0.494248 0.272577
170 2 11.0969 3.44189 3.47136 -0.221785 -0.870887 -0.730651
171 2 11.8845 8.54415 3.43405 -1.44256 2.67664 0.646524
172 2 19.7195 10.1102 9.02265 -0.485385 1.43806 -0.0958809
173 2 19.2499 7.60109 8.90873 1.4187 1.42144 1.53109
174 2 18.3467 5.34991 1.37662 0.380905 -1.11434 0.869853
175 2 16.5606 5.94959 4.24019 -0.787387 -1.11215 0.956226
176 2 18.8243 4.99652 3.88812 1.08932 1.02828 0.266546
177 2 18.0981 2.69479 1.20585 -1.31055 0.071103 1.45232
178 2 17.4629 0.16346 1.36457 0.231384 -0.622439 -1.47174
179 2 15.7081 0.814114 4.2835 -1.62554 -0.163556 0.997871
180 2 16.2595 3.45446 3.35502 -1.45592 1.10442 1.52548
181 2 18.6826 7.89834 1.1527 1.54572 1.87519 -1.15236
182 2 16.9703 8.56744 3.45602 0.914737 1.46413 0.799016
183 2 17.4598 0.0812773 6.53509 0.229723 0.0713288 1.08953
184 2 15.6877 0.848094 9.39286 0.61307 -0.19755 -0.456208
185 2 18.7103 7.87084 6.29049 1.49006 0.752243 -1.25654
186 2 18.4133 5.22136 6.47632 -1.07672 -0.304623 1.34873
187 2 16.5511 6.05985 9.37656 0.971981 -0.78394 1.07424
188 2 16.9568 8.52585 8.47853 -0.564623 2.06547 0.361828
189 2 18.8184 5.092 8.99427 -0.865458 0.655284 1.02653
190 2 17.9782 2.70204 6.42491 -1.80806 1.06677 -0.728632
191 2 18.3878 2.46458 9.01312 1.24362 -0.551198 1.82403
192 2 16.2184 3.44495 8.57088 -2.08028 -1.3203 0.240974
481 1 20.2084 8.73753 17.7265 0.443146 6.01085 1.61731
482 1 19.5672 3.62109 12.6807 3.69805 5.00951 3.79851
483 1 19.085 1.01658 10.5645 -4.27747 -0.922529 0.316868
484 1 20.1866 8.87631 12.6132 -1.29176 -3.6807 1.54689
485 1 19.8862 6.30305 10.4462 -1.033 4.20894 -0.200339
486 1 19.0442 1.06675 15.8051 -3.2259 4.37219 -1.08022
487 1 19.9206 6.26491 15.4842 1.69186 0.290974 0.483053
488 1 14.5477 3.81789 12.6584 3.32908 -2.04432 -3.44376
489 1 12.3024 4.11563 15.2503 -5.21299 4.01718 5.15136
490 1 11.794 1.51957 13.1764 1.4403 1.87867 2.99176
491 1 15.3044 8.94063 12.6088 1.94632 -0.528271 4.77713
492 1 12.9811 9.31926 15.2323 -1.08851 4.77023 -5.45834
493 1 15.1939 8.89798 17.604 -3.01939 4.86787 2.07263
494 1 12.5615 6.7361 18.164 0.83909 0.257796 0.484351
495 1 14.9234 6.33415 15.5678 2.53319 1.07317 0.335036
496 1 14.5106 3.71777 17.7683 -5.19133 1.06084 1.69991
497 1 12.2972 4.19219 20.413 0.859347 -5.60325 1.58578
498 1 11.8572 1.53805 18.3806 0.250587 4.36967 -3.98255
499 1 13.9439 1.1276 15.6266 5.16312 4.11438 2.38699
500 1 13.041 9.28503 20.3179 4.81716 3.16337 3.96548
501 1 12.5649 6.79223 13.1059 3.71815 -3.95695 -3.44143
502 1 14.7681 6.35818 10.3281 -2.63135 1.83455 3.36268
503 1 14.0984 1.21993 10.5746 -0.473365 -2.10771 0.831929
504 1 18.0892 9.3092 20.2619 -2.60424 1.41309 0.846639
505 1 17.3393 4.10125 20.3307 1.65745 2.72898 -2.97279
506 1 18.1039 9.3102 15.1488 0.421337 -2.47251 3.19854
507 1 17.6127 6.67095 12.9773 2.19969 -0.0457294 -0.696207
508 1 17.3533 4.09214 15.1747 -5.6964 -0.152189 -2.4745
509 1 16.9009 1.50791 13.0842 -3.23841 -3.59818 3.53919
510 1 17.7302 6.67279 18.1586 0.932804 -1.36798 1.81177
511 1 19.5398 3.69516 17.8228 -0.722582 -0.367582 0.686976
512 1 16.9035 1.5056 18.2441 -0.592634 3.68217 -5.23905
513 2 20.2201 1.85325 17.2307 0.892873 -1.9487 -1.4548
514 2 21.1249 7.08138 16.9592 -1.30918 -1.4893 -0.399445
515 2 21.4195 9.60939 16.3122 -0.342498 -1.04672 -0.614724
516 2 20.9178 6.95961 12.015 2.4022 1.46759 -1.01369
517 2 18.4501 2.47159 14.1814 -0.0660032 -2.02863 0.253299
518 2 20.2019 1.65855 12.1348 0.253714 1.45854 -1.48555
519 2 20.6144 4.35174 11.1027 0.730386 0.97277 0.168604
520 2 19.7152 10.2553 14.0805 0.612822 0.884 1.99944
521 2 19.2856 7.61786 14.087 -1.4004 1.68333 0.57731
522 2 21.4126 9.42551 11.1594 1.33986 1.86671 -1.90858
523 2 20.7485 4.46991 16.3562 -1.30347 -1.57318 0.916337
524 2 13.766 5.03045 14.0843 -0.269285 1.96159 0.703259
525 2 13.3504 2.54566 14.2237 -0.368631 -0.286214 0.265566
526 2 15.2621 1.96509 12.0171 1.00111 -1.84073 0.460455
527 2 10.6295 0.85951 14.6827 0.738472 -0.106493 0.221103