LAMMPS (23 Jun 2022 - Update 3)
  using 1 OpenMP thread(s) per MPI task
#
#--------------------------- Simulation variables -----------------------------#
  # Initalizes the random number generator.
#  variable         rnd equal 7777 # round(random(0,999,${RANDOM}))

  # Simulation control parameters.
  variable          T equal 500

  # Simulation steps (t_eq)
  variable          t_eq equal 100
  variable          output equal 1 #freq to print output
  variable          dumpstep equal 1

#------------------------------------------------------------------------------#


#---------------------------- Atomic setup ------------------------------------#
  units            metal
  #boundary         f f f
  boundary         p p p
  # Create atoms.
  box tilt large
  read_data        ./res.dat
Reading data file ...
  triclinic box = (0 0 0) to (10.129786 10.371119 10.263143) with tilt (1.7303548 0 0)
  1 by 1 by 1 MPI processor grid
  reading atoms ...
  96 atoms
  read_data CPU = 0.001 seconds
  replicate 2 2 2
Replicating atoms ...
  triclinic box = (0 0 0) to (20.259573 20.742238 20.526287) with tilt (3.4607097 0 0)
  1 by 1 by 1 MPI processor grid
  768 atoms
  replicate CPU = 0.000 seconds

  # Define interatomic potential.
  pair_style       e3gnn/parallel
PairE3GNNParallel using device : CPU
PairE3GNNParallel cuda-award mpi: False
  pair_coeff       * * 3 ./deployed_parallel_0.pt ./deployed_parallel_1.pt ./deployed_parallel_2.pt Hf O
from simple_gnn version '1.00' single precision model trained at 2023-05-15 is loaded

  timestep         0.002

#----------------------------- Run simulation ---------------------------------#

    # Setup output
    thermo          ${output} 			#because it is realaxation
    thermo          1 			
    compute         atompe all pe/atom					#compute atomic energy which is correspond to NNP atomic energy
    thermo_style    custom step tpcpu pe ke vol press temp #recod these value (custom setting)
    dump            mydump all custom 1 dump.traj id type x y z fx fy fz

    fix f1 all nph tri 0.0 0.0 1.0
    fix               comfix all momentum 1 linear 1 1 1
    velocity        all create ${T} 1 dist gaussian mom yes
    velocity        all create 500 1 dist gaussian mom yes

    #fix f1 all nph aniso 0.0 0.0 1.0
    #dump            newd all custom 1 ff.traj id type x y z f_f3[*]

    fix f2 all langevin ${T} ${T} 0.1 999
    fix f2 all langevin 500 ${T} 0.1 999
    fix f2 all langevin 500 500 0.1 999

    run 3
Generated 0 of 1 mixed pair_coeff terms from geometric mixing rule
Neighbor list info ...
  update every 1 steps, delay 10 steps, check yes
  max neighbors/atom: 2000, page size: 100000
  master list distance cutoff = 6
  ghost atom cutoff = 6
  binsize = 3, bins = 8 7 7
  1 neighbor lists, perpetual/occasional/extra = 1 0 0
  (1) pair e3gnn/parallel, perpetual
      attributes: full, newton on
      pair build: full/bin/atomonly
      stencil: full/bin/3d
      bin: standard
Per MPI rank memory allocation (min/avg/max) = 11.17 | 11.17 | 11.17 Mbytes
   Step         T/CPU          PotEng         KinEng         Volume         Press           Temp     
         0   0             -7798.6587      49.571266      8625.7383      6138.3667      500          
         1   0.00013052981 -7797.8018      47.529164      8625.79        5885.4597      479.40236    
         2   5.3690507e-05 -7795.8652      45.496568      8625.9408      5633.6682      458.90061    
         3   0.00016303185 -7793.1763      43.327014      8626.1865      5364.8677      437.01743    
Loop time of 64.8403 on 1 procs for 3 steps with 768 atoms

Performance: 0.008 ns/day, 3001.864 hours/ns, 0.046 timesteps/s
73.8% CPU use with 1 MPI tasks x 1 OpenMP threads

MPI task timing breakdown:
Section |  min time  |  avg time  |  max time  |%varavg| %total
---------------------------------------------------------------
Pair    | 64.833     | 64.833     | 64.833     |   0.0 | 99.99
Neigh   | 0          | 0          | 0          |   0.0 |  0.00
Comm    | 0.00011007 | 0.00011007 | 0.00011007 |   0.0 |  0.00
Output  | 0.0069639  | 0.0069639  | 0.0069639  |   0.0 |  0.01
Modify  | 0.00041571 | 0.00041571 | 0.00041571 |   0.0 |  0.00
Other   |            | 2.493e-05  |            |       |  0.00

Nlocal:            768 ave         768 max         768 min
Histogram: 1 0 0 0 0 0 0 0 0 0
Nghost:           2196 ave        2196 max        2196 min
Histogram: 1 0 0 0 0 0 0 0 0 0
Neighs:              0 ave           0 max           0 min
Histogram: 1 0 0 0 0 0 0 0 0 0
FullNghs:        60672 ave       60672 max       60672 min
Histogram: 1 0 0 0 0 0 0 0 0 0

Total # of neighbors = 60672
Ave neighs/atom = 79
Neighbor list builds = 0
Dangerous builds = 0
    run 10
Generated 0 of 1 mixed pair_coeff terms from geometric mixing rule
Per MPI rank memory allocation (min/avg/max) = 11.17 | 11.17 | 11.17 Mbytes
   Step         T/CPU          PotEng         KinEng         Volume         Press           Temp     
         3   0             -7793.1763      43.327014      8626.1865      5364.8677      437.01743    
         4   0.00016119428 -7790.4858      39.831496      8626.5226      4931.851       401.75992    
         5   0.00016294826 -7788.4541      38.431552      8626.9418      4758.2818      387.63941    
         6   0.00016357379 -7787.3213      37.756304      8627.4413      4674.4074      380.82853    
         7   0.00015939868 -7787.0518      38.106379      8628.0196      4717.4321      384.35955    
         8   0.00016366169 -7787.4268      38.864769      8628.6775      4810.9512      392.00904    
         9   0.00016294728 -7787.9795      39.633908      8629.4167      4905.7402      399.76695    
        10   0.0001630037  -7788.5225      40.60068       8630.2389      5024.9251      409.5183     
        11   0.00016279131 -7788.7803      41.231009      8631.146       5102.4011      415.8761     
        12   0.00016079672 -7788.6514      41.604575      8632.1395      5148.0379      419.64406    
        13   0.00016414227 -7788.3804      41.671713      8633.2203      5155.6999      420.32126    
Loop time of 123.127 on 1 procs for 10 steps with 768 atoms

Performance: 0.014 ns/day, 1710.104 hours/ns, 0.081 timesteps/s
60.7% CPU use with 1 MPI tasks x 1 OpenMP threads

MPI task timing breakdown:
Section |  min time  |  avg time  |  max time  |%varavg| %total
---------------------------------------------------------------
Pair    | 123.1      | 123.1      | 123.1      |   0.0 | 99.98
Neigh   | 0          | 0          | 0          |   0.0 |  0.00
Comm    | 0.0002851  | 0.0002851  | 0.0002851  |   0.0 |  0.00
Output  | 0.023134   | 0.023134   | 0.023134   |   0.0 |  0.02
Modify  | 0.0012679  | 0.0012679  | 0.0012679  |   0.0 |  0.00
Other   |            | 4.992e-05  |            |       |  0.00

Nlocal:            768 ave         768 max         768 min
Histogram: 1 0 0 0 0 0 0 0 0 0
Nghost:           2209 ave        2209 max        2209 min
Histogram: 1 0 0 0 0 0 0 0 0 0
Neighs:              0 ave           0 max           0 min
Histogram: 1 0 0 0 0 0 0 0 0 0
FullNghs:        60714 ave       60714 max       60714 min
Histogram: 1 0 0 0 0 0 0 0 0 0

Total # of neighbors = 60714
Ave neighs/atom = 79.054688
Neighbor list builds = 0
Dangerous builds = 0

  write_data after.dat
System init for write_data ...
Generated 0 of 1 mixed pair_coeff terms from geometric mixing rule
#------------------------------------------------------------------------------#
Total wall time: 0:03:34
