ITEM: TIMESTEP
0
ITEM: NUMBER OF ATOMS
768
ITEM: BOX BOUNDS xy xz yz pp pp pp
0.0000000000000000e+00 2.3720282300000001e+01 3.4607096799999999e+00
0.0000000000000000e+00 2.0742237880000001e+01 0.0000000000000000e+00
0.0000000000000000e+00 2.0526286599999999e+01 0.0000000000000000e+00
ITEM: ATOMS id type x y z fx fy fz
1 1 10.0786 8.73753 7.46334 0.626791 1.41804 1.12406
2 1 9.43739 3.62109 2.41758 -2.51665 -2.41236 3.09143
3 1 8.95523 1.01658 0.30136 1.58663 4.11491 -3.87382
4 1 10.0568 8.87631 2.35009 2.67689 0.555047 -3.43623
5 1 9.75639 6.30305 0.183031 -1.30238 -3.79003 3.6232
6 1 8.91444 1.06675 5.542 -2.25708 1.87812 -5.81458
7 1 9.79081 6.26491 5.22104 -4.94546 -4.62502 3.31256
8 1 4.41793 3.81789 2.39528 -3.78361 -5.94885 1.09573
9 1 2.17257 4.11563 4.98715 3.12583 4.2025 -1.34152
10 1 1.66418 1.51957 2.91326 2.41307 0.558501 -1.62556
11 1 5.17465 8.94063 2.34566 -0.635929 3.48585 3.15483
12 1 2.85135 9.31926 4.96913 -1.37227 -0.0698906 1.86584
13 1 5.06412 8.89798 7.34081 0.283154 -1.08528 3.11926
14 1 2.43172 6.7361 7.90087 -1.54802 0.946759 -0.547788
15 1 4.79358 6.33415 5.3047 -2.45061 -0.489415 -3.30596
16 1 4.38084 3.71777 7.50515 -2.29376 4.36873 -4.47378
17 1 2.1674 4.19219 10.1499 -0.380837 -2.18361 4.10819
18 1 1.7274 1.53805 8.11741 0.520433 -3.77074 -6.91583
19 1 3.8141 1.1276 5.36341 -3.00202 2.43108 0.284941
20 1 2.91125 9.28503 10.0547 3.32205 4.27194 -0.376358
21 1 2.43509 6.79223 2.84273 -1.77696 -1.97026 -6.00734
22 1 4.63829 6.35818 0.0649531 5.79564 -3.35504 1.63422
23 1 3.96862 1.21993 0.311492 -2.68634 -4.72396 0.623764
24 1 7.95946 9.3092 9.99875 0.522053 1.25774 0.113514
25 1 7.20954 4.10125 10.0676 2.40162 3.98912 2.71169
26 1 7.97413 9.3102 4.88565 2.98975 -2.87557 -2.527
27 1 7.48292 6.67095 2.71417 4.83425 -1.51115 -3.45591
28 1 7.22354 4.09214 4.91151 3.57053 -2.30986 1.56393
29 1 6.7711 1.50791 2.82108 -0.893095 4.8648 4.40162
30 1 7.6004 6.67279 7.89548 0.125736 -0.204214 -4.43104
31 1 9.41002 3.69516 7.5597 -1.29874 -2.84988 4.31534
32 1 6.77375 1.5056 7.98091 -3.67165 -2.99628 -5.9756
33 2 10.0903 1.85325 6.96757 1.12623 -0.435225 0.610775
34 2 10.9951 7.08138 6.69601 -0.684074 0.54458 0.631913
35 2 11.2897 9.60939 6.04904 1.83038 -1.87468 1.59693
36 2 10.788 6.95961 1.75183 0.888007 -0.996724 1.29735
37 2 8.32036 2.47159 3.9183 0.544752 -1.79932 0.0937968
38 2 10.0721 1.65855 1.87163 0.805988 -1.05967 -1.28523
39 2 10.4846 4.35174 0.839576 -0.264625 -0.101589 0.680828
40 2 9.58544 10.2553 3.81737 0.951902 -1.18506 0.540145
41 2 9.15582 7.61786 3.82383 0.245618 0.945524 -0.363163
42 2 11.2828 9.42551 0.896224 -0.191528 0.0143179 0.0111317
43 2 10.6187 4.46991 6.09305 0.805838 -0.241001 -0.310682
44 2 3.63624 5.03045 3.82117 -0.834449 0.514976 0.0697779
45 2 3.22065 2.54566 3.96055 1.27618 -1.17115 0.4807
46 2 5.13228 1.96509 1.754 -0.792714 -1.32602 -1.40424
47 2 0.499723 0.85951 4.41955 -0.849177 0.678878 0.111552
48 2 4.49795 10.2551 3.94724 1.33415 -0.707653 0.831274
49 2 4.08832 7.74684 3.86494 -1.23738 -0.177707 1.0575
50 2 5.90127 7.07174 1.6653 -0.44656 0.825198 -1.33442
51 2 6.32939 9.71905 0.937144 1.50557 1.33763 0.143752
52 2 5.44335 4.45855 0.808635 -0.0597876 0.224561 -1.28543
53 2 3.54898 7.91811 6.27738 0.351295 0.0981492 1.7615
54 2 3.21455 5.3337 6.39781 0.939996 0.348325 -0.0332227
55 2 4.08744 7.79256 8.94431 -0.641048 -0.0714504 -0.440122
56 2 5.89611 7.08976 6.71714 -0.418793 -1.22601 -0.253022
57 2 1.22356 5.98776 9.31853 2.07334 0.238013 -1.07032
58 2 6.3615 9.67587 6.06079 0.211657 0.498088 -0.255837
59 2 3.62497 5.17884 8.87968 0.252893 0.104822 1.33171
60 2 2.79092 2.70312 6.5063 0.20844 0.336274 -1.86942
61 2 2.20642 0.121993 6.50943 1.12716 -0.681964 0.138276
62 2 3.36642 2.52336 9.09596 0.273331 1.72657 -0.782328
63 2 5.04873 1.85222 6.87617 0.965531 -0.917917 0.869082
64 2 0.504634 0.781011 9.52305 0.15054 -0.339514 0.404695
65 2 0.952754 3.34557 8.69554 1.14062 -0.136204 1.63411
66 2 5.46251 4.47528 6.00302 0.309919 -1.65475 -0.362359
67 2 4.49818 10.3043 8.9576 1.80063 -0.209487 -0.241869
68 2 1.73952 8.56369 8.58555 0.661849 1.23143 0.323207
69 2 3.62337 7.98128 1.17333 -0.319381 -0.249702 0.70527
70 2 3.16119 5.40722 1.22907 -0.860602 -0.671904 1.71755
71 2 1.31419 5.97277 4.19215 -0.495806 -1.96999 -0.828079
72 2 2.79848 2.74889 1.27176 -0.865923 0.351603 1.20261
73 2 2.29398 0.169842 1.46074 -0.194095 -0.870912 0.619139
74 2 0.967076 3.44189 3.47136 1.05146 -1.01036 -0.865702
75 2 1.75476 8.54415 3.43405 -0.844124 1.06731 -0.692464
76 2 9.58968 10.1102 9.02265 -0.421835 -0.194737 0.83466
77 2 9.1201 7.60109 8.90873 -0.0050724 -0.92678 1.96393
78 2 8.21691 5.34991 1.37662 -0.63116 -0.364351 -0.608835
79 2 6.43084 5.94959 4.24019 -0.872556 0.438334 0.491211
80 2 8.69455 4.99652 3.88812 0.699349 1.69826 -0.547514
81 2 7.96834 2.69479 1.20585 -1.84917 -1.19822 0.279075
82 2 7.33314 0.16346 1.36457 0.214272 -1.6175 0.156971
83 2 5.57831 0.814114 4.2835 -0.437371 -0.722202 -0.0371828
84 2 6.1297 3.45446 3.35502 -1.44617 -0.0831829 -0.909338
85 2 8.55281 7.89834 1.1527 -0.297582 1.89518 0.0570765
86 2 6.84048 8.56744 3.45602 0.629146 -0.113216 0.333005
87 2 7.33002 0.0812773 6.53509 0.373658 0.596162 0.691831
88 2 5.55796 0.848094 9.39286 -0.839493 0.219868 0.248435
89 2 8.58051 7.87084 6.29049 0.376014 -1.54368 0.744212
90 2 8.28348 5.22136 6.47632 -1.67028 0.559446 0.413518
91 2 6.42128 6.05985 9.37656 -0.173581 -0.302659 -0.704079
92 2 6.82699 8.52585 8.47853 -0.555928 2.2071 1.20143
93 2 8.68866 5.092 8.99427 0.119878 -1.48982 -0.68906
94 2 7.84842 2.70204 6.42491 -0.505732 0.0727603 -0.00254429
95 2 8.25797 2.46458 9.01312 2.2376 -0.64153 1.85934
96 2 6.08861 3.44495 8.57088 -0.243255 -0.568592 0.731382
385 1 10.0786 8.73753 17.7265 -0.539417 -0.353615 -4.68721
386 1 9.43739 3.62109 12.6807 -5.30547 3.9483 -4.64196
387 1 8.95523 1.01658 10.5645 -1.2947 5.0118 -2.11491
388 1 10.0568 8.87631 12.6132 -1.57169 3.34912 2.82295
389 1 9.75639 6.30305 10.4462 -0.395566 -0.529001 -3.52711
390 1 8.91444 1.06675 15.8051 -1.60499 1.039 -4.21478
391 1 9.79081 6.26491 15.4842 -4.42857 -0.0290764 -1.50189
392 1 4.41793 3.81789 12.6584 1.46995 0.630762 -5.61178
393 1 2.17257 4.11563 15.2503 -0.952573 1.43517 5.56396
394 1 1.66418 1.51957 13.1764 3.99702 1.23265 -3.66058
395 1 5.17465 8.94063 12.6088 0.15105 2.33971 2.67092
396 1 2.85135 9.31926 15.2323 -0.554901 -4.04978 -0.63539
397 1 5.06412 8.89798 17.604 2.94338 4.22592 5.91516
398 1 2.43172 6.7361 18.164 2.37547 4.7893 -0.309938
399 1 4.79358 6.33415 15.5678 2.22065 -1.36383 -1.04739
400 1 4.38084 3.71777 17.7683 -2.41682 -2.07214 2.62948
401 1 2.1674 4.19219 20.413 0.568778 0.415635 -4.3636
402 1 1.7274 1.53805 18.3806 -4.05412 -0.860915 -1.16777
403 1 3.8141 1.1276 15.6266 -2.916 -1.13466 -2.21889
404 1 2.91125 9.28503 20.3179 1.1393 -0.207387 4.42766
405 1 2.43509 6.79223 13.1059 -2.0972 -4.9069 -2.20868
406 1 4.63829 6.35818 10.3281 -2.6112 1.19702 5.16274
407 1 3.96862 1.21993 10.5746 1.97719 1.95751 3.20994
408 1 7.95946 9.3092 20.2619 -5.5339 1.4261 2.51162
409 1 7.20954 4.10125 20.3307 -4.66406 -1.32845 3.15442
410 1 7.97413 9.3102 15.1488 0.358405 2.71393 1.23986
411 1 7.48292 6.67095 12.9773 0.918799 3.1846 2.38709
412 1 7.22354 4.09214 15.1747 2.75506 -1.51661 -1.86942
413 1 6.7711 1.50791 13.0842 -1.37678 -0.903765 -2.6094
414 1 7.6004 6.67279 18.1586 -1.99877 1.44835 -1.01219
415 1 9.41002 3.69516 17.8228 0.806561 -1.0455 3.87724
416 1 6.77375 1.5056 18.2441 0.0924003 4.47915 -0.235835
417 2 10.0903 1.85325 17.2307 -0.331736 -0.986624 0.125476
418 2 10.9951 7.08138 16.9592 0.66226 -1.11392 0.00482879
419 2 11.2897 9.60939 16.3122 -0.417883 -1.67039 -0.849678
420 2 10.788 6.95961 12.015 1.6033 0.593788 0.264335
421 2 8.32036 2.47159 14.1814 -1.50662 -2.05436 0.818733
422 2 10.0721 1.65855 12.1348 0.696098 -0.646391 0.595178
423 2 10.4846 4.35174 11.1027 1.61245 0.877906 1.2061
424 2 9.58544 10.2553 14.0805 0.644173 0.500762 -0.130993
425 2 9.15582 7.61786 14.087 0.217816 0.543497 -0.951895
426 2 11.2828 9.42551 11.1594 2.21066 0.960434 -1.73657
427 2 10.6187 4.46991 16.3562 0.464329 -1.22924 -1.37756
428 2 3.63624 5.03045 14.0843 1.53471 2.13938 0.561232
429 2 3.22065 2.54566 14.2237 0.240816 -0.603524 1.10039
430 2 5.13228 1.96509 12.0171 0.533837 0.528558 0.384305
431 2 0.499723 0.85951 14.6827 -0.438746 -1.07758 -0.644614
432 2 4.49795 10.2551 14.2104 -0.673179 0.551547 -0.89715
433 2 4.08832 7.74684 14.1281 -1.05248 -1.69977 0.972211
434 2 5.90127 7.07174 11.9284 -0.860086 -0.414954 0.229399
435 2 6.32939 9.71905 11.2003 1.51506 0.778589 -1.56012
436 2 5.44335 4.45855 11.0718 0.38984 1.159 -0.263731
437 2 3.54898 7.91811 16.5405 0.325637 0.260458 0.920763
438 2 3.21455 5.3337 16.661 0.911385 -0.151698 0.654902
439 2 4.08744 7.79256 19.2074 -1.08945 -2.29757 -0.566841
440 2 5.89611 7.08976 16.9803 -0.347992 0.501765 0.576406
441 2 1.22356 5.98776 19.5817 -0.0809826 0.117108 0.0775429
442 2 6.3615 9.67587 16.3239 0.856635 -0.260044 0.696538
443 2 3.62497 5.17884 19.1428 -0.838113 -0.885797 -0.765645
444 2 2.79092 2.70312 16.7694 0.211121 -0.133615 -0.230391
445 2 2.20642 0.121993 16.7726 1.87454 1.76207 0.774582
446 2 3.36642 2.52336 19.3591 -0.543145 -0.448923 -0.232784
447 2 5.04873 1.85222 17.1393 -0.0401547 0.0569816 -1.12397
448 2 0.504634 0.781011 19.7862 -1.42357 1.6683 -0.808451
449 2 0.952754 3.34557 18.9587 1.26305 -0.032125 -0.888236
450 2 5.46251 4.47528 16.2662 1.03967 -0.0672872 -0.722024
451 2 4.49818 10.3043 19.2207 -0.116954 0.24251 0.648037
452 2 1.73952 8.56369 18.8487 -1.00422 0.257676 -0.92414
453 2 3.62337 7.98128 11.4365 -0.948002 -0.351684 0.841642
454 2 3.16119 5.40722 11.4922 -0.645862 1.54159 2.45938
455 2 1.31419 5.97277 14.4553 -0.128359 -1.37514 -0.12463
456 2 2.79848 2.74889 11.5349 0.154043 -0.769266 0.409377
457 2 2.29398 0.169842 11.7239 1.03586 -0.755052 -2.28953
458 2 0.967076 3.44189 13.7345 -0.204181 -1.00962 0.275888
459 2 1.75476 8.54415 13.6972 0.306729 2.37734 0.753761
460 2 9.58968 10.1102 19.2858 -0.279392 0.651515 0.433947
461 2 9.1201 7.60109 19.1719 0.215459 0.622662 1.19318
462 2 8.21691 5.34991 11.6398 0.237194 -1.1169 -1.23639
463 2 6.43084 5.94959 14.5033 1.08633 0.04106 1.009
464 2 8.69455 4.99652 14.1513 1.71927 1.01687 -1.18921
465 2 7.96834 2.69479 11.469 -2.47308 1.16495 -0.598522
466 2 7.33314 0.16346 11.6277 0.932881 -1.60827 -0.674444
467 2 5.57831 0.814114 14.5466 -1.73332 1.63366 -1.48716
468 2 6.1297 3.45446 13.6182 -0.523188 1.36139 1.05273
469 2 8.55281 7.89834 11.4158 0.153831 0.0684365 0.270445
470 2 6.84048 8.56744 13.7192 -0.659691 -0.306939 -0.507919
471 2 7.33002 0.0812773 16.7982 -1.09749 0.565351 -0.0852557
472 2 5.55796 0.848094 19.656 -0.388918 -0.317051 0.77655
473 2 8.58051 7.87084 16.5536 1.54761 -1.90569 -0.572342
474 2 8.28348 5.22136 16.7395 -1.46035 -0.206554 0.0666704
475 2 6.42128 6.05985 19.6397 0.712733 0.269922 -0.164906
476 2 6.82699 8.52585 18.7417 -0.49964 0.945932 -0.0285216
477 2 8.68866 5.092 19.2574 -0.925509 -0.0257792 0.538251
478 2 7.84842 2.70204 16.6881 -0.470511 1.10172 0.440321
479 2 8.25797 2.46458 19.2763 -0.02476 0.984677 2.17326
480 2 6.08861 3.44495 18.834 -1.40461 0.841564 0.52398
193 1 11.8089 19.1086 7.46334 3.43657 5.44697 1.27715
194 1 11.1677 13.9922 2.41758 -5.45749 2.58675 -1.68013
195 1 10.6856 11.3877 0.30136 0.775122 3.53087 -0.109098
196 1 11.7872 19.2474 2.35009 0.0269411 0.46609 -1.68158
197 1 11.4867 16.6742 0.183031 -0.982417 3.18198 0.229439
198 1 10.6448 11.4379 5.542 -0.448084 3.04295 -4.75965
199 1 11.5212 16.636 5.22104 1.69123 -0.844271 -0.520147
200 1 6.14828 14.189 2.39528 -0.403522 1.8901 0.494088
201 1 3.90293 14.4867 4.98715 1.25416 -2.78366 -1.45032
202 1 3.39453 11.8907 2.91326 -4.012 -3.73164 -0.905575
203 1 6.90501 19.3118 2.34566 2.3479 -3.75285 1.45367
204 1 4.58171 19.6904 4.96913 4.42893 -4.47586 -0.829322
205 1 6.79448 19.2691 7.34081 5.82546 1.9747 2.67515
206 1 4.16207 17.1072 7.90087 2.16526 2.36825 -1.55683
207 1 6.52394 16.7053 5.3047 2.01406 0.455851 -2.59294
208 1 6.11119 14.0889 7.50515 3.45363 1.32204 -0.415
209 1 3.89776 14.5633 10.1499 1.08911 -0.337234 -1.89658
210 1 3.45776 11.9092 8.11741 0.609019 -3.61229 2.32409
211 1 5.54445 11.4987 5.36341 -0.30378 -2.69412 3.03494
212 1 4.6416 19.6561 10.0547 -2.04719 1.74827 -0.295626
213 1 4.16544 17.1633 2.84273 5.75098 -4.02824 1.79354
214 1 6.36864 16.7293 0.0649531 0.143182 -2.39825 -0.116639
215 1 5.69898 11.5911 0.311492 -1.99107 1.39519 -3.35539
216 1 9.68981 19.6803 9.99875 2.27561 -0.104722 -2.37678
217 1 8.93989 14.4724 10.0676 1.70074 -0.848523 -2.02906
218 1 9.70449 19.6813 4.88565 0.210749 -4.2381 4.66172
219 1 9.21328 17.0421 2.71417 -1.50763 -3.05964 1.95634
220 1 8.9539 14.4633 4.91151 -1.42068 3.05911 4.87942
221 1 8.50146 11.879 2.82108 3.04 2.77453 2.84472
222 1 9.33076 17.0439 7.89548 3.05005 -1.72506 -0.237291
223 1 11.1404 14.0663 7.5597 -0.879347 4.37117 -2.68074
224 1 8.5041 11.8767 7.98091 -2.81655 3.14609 -5.65224
225 2 11.8207 12.2244 6.96757 -0.119474 -0.679022 -1.46954
226 2 12.7255 17.4525 6.69601 -1.18056 0.253371 -0.639863
227 2 13.02 19.9805 6.04904 2.02097 0.358281 1.33754
228 2 12.5184 17.3307 1.75183 1.58709 -0.506851 -0.638917
229 2 10.0507 12.8427 3.9183 1.50999 -1.73228 -0.729679
230 2 11.8025 12.0297 1.87163 0.92944 -0.323689 -0.318251
231 2 12.215 14.7229 0.839576 0.905829 -0.429921 -0.0459943
232 2 11.3158 20.6264 3.81737 0.624264 0.212349 -0.21851
233 2 10.8862 17.989 3.82383 -1.43408 0.224454 -1.47163
234 2 13.0132 19.7966 0.896224 2.02578 0.979594 -0.199164
235 2 12.3491 14.841 6.09305 0.408027 1.24179 -0.466174
236 2 5.36659 15.4016 3.82117 -0.730495 1.60953 0.135467
237 2 4.95101 12.9168 3.96055 0.321698 -0.1512 -0.935143
238 2 6.86264 12.3362 1.754 -1.80428 -0.328765 -1.45024
239 2 2.23008 11.2306 4.41955 0.415365 1.11889 -1.29789
240 2 6.22831 20.6263 3.94724 0.0631142 0.170503 -0.196131
241 2 5.81867 18.118 3.86494 -0.461739 -0.636034 0.125034
242 2 7.63163 17.4429 1.6653 -0.938991 0.586714 -1.26104
243 2 8.05975 20.0902 0.937144 0.924459 0.207925 -1.14843
244 2 7.1737 14.8297 0.808635 -1.16338 1.74328 -1.15189
245 2 5.27933 18.2892 6.27738 0.380768 0.823408 1.02016
246 2 4.9449 15.7048 6.39781 0.550662 -0.40828 -0.173038
247 2 5.8178 18.1637 8.94431 -2.02091 -1.37811 0.570845
248 2 7.62646 17.4609 6.71714 2.03465 0.625519 -0.0409253
249 2 2.95392 16.3589 9.31853 1.9005 -1.6565 0.0254748
250 2 8.09185 20.047 6.06079 -0.323032 1.76077 0.111416
251 2 5.35532 15.55 8.87968 0.16099 -0.299762 0.823544
252 2 4.52127 13.0742 6.5063 0.594868 1.88756 0.373338
253 2 3.93678 10.4931 6.50943 -0.736073 0.538918 -1.35317
254 2 5.09678 12.8945 9.09596 -0.270721 -0.0204884 -0.569646
255 2 6.77909 12.2233 6.87617 -0.138409 0.06014 -0.48838
256 2 2.23499 11.1521 9.52305 0.331501 1.69239 -0.316675
257 2 2.68311 13.7167 8.69554 0.946819 1.74693 1.35123
258 2 7.19287 14.8464 6.00302 1.85595 -1.66934 0.886745
259 2 6.22853 20.6754 8.9576 0.907287 0.711101 1.28936
260 2 3.46988 18.9348 8.58555 0.141328 0.0224069 -0.991132
261 2 5.35373 18.3524 1.17333 0.574643 -1.2797 -0.158089
262 2 4.89154 15.7783 1.22907 0.762279 -0.983729 2.42773
263 2 3.04454 16.3439 4.19215 -0.493389 0.0310346 1.8216
264 2 4.52884 13.12 1.27176 -0.539565 1.49563 0.706341
265 2 4.02433 10.541 1.46074 -1.00398 1.30449 -1.06242
266 2 2.69743 13.813 3.47136 0.472444 -0.253079 0.971065
267 2 3.48512 18.9153 3.43405 -2.30567 0.729257 0.856769
268 2 11.32 20.4813 9.02265 -0.992421 0.178499 -1.39316
269 2 10.8505 17.9722 8.90873 0.846604 0.164516 1.28877
270 2 9.94726 15.721 1.37662 1.23543 0.0917326 -1.77828
271 2 8.16119 16.3207 4.24019 -0.762611 -0.916494 -1.45204
272 2 10.4249 15.3676 3.88812 1.01546 0.835042 -2.28314
273 2 9.69869 13.0659 1.20585 -1.8719 -0.736342 1.21618
274 2 9.06349 10.5346 1.36457 -1.52944 -1.87625 -0.771433
275 2 7.30866 11.1852 4.2835 -1.39082 -0.31228 -0.94966
276 2 7.86005 13.8256 3.35502 0.355734 -1.0659 -1.14334
277 2 10.2832 18.2695 1.1527 -0.445661 0.656517 1.08678
278 2 8.57083 18.9386 3.45602 0.268573 -0.686311 0.298649
279 2 9.06038 10.4524 6.53509 0.119955 1.11818 0.328043
280 2 7.28831 11.2192 9.39286 -1.25857 0.66025 -1.04498
281 2 10.3109 18.242 6.29049 1.20087 -0.0692961 -0.566713
282 2 10.0138 15.5925 6.47632 -1.4477 0.665773 -0.208357
283 2 8.15163 16.431 9.37656 -0.83727 -0.313174 -0.37548
284 2 8.55735 18.897 8.47853 1.085 1.49146 0.883793
285 2 10.419 15.4631 8.99427 0.374725 -0.980009 0.648646
286 2 9.57878 13.0732 6.42491 -1.68523 1.41294 -1.3957
287 2 9.98832 12.8357 9.01312 0.290512 -1.21056 -0.454502
288 2 7.81897 13.8161 8.57088 -2.027 0.430875 0.962098
577 1 11.8089 19.1086 17.7265 6.14589 -0.32067 -0.498421
578 1 11.1677 13.9922 12.6807 1.49668 -3.41498 -4.67742
579 1 10.6856 11.3877 10.5645 2.75445 -1.37167 1.82437
580 1 11.7872 19.2474 12.6132 -0.483866 3.32766 1.76048
581 1 11.4867 16.6742 10.4462 3.6809 -0.722838 2.10076
582 1 10.6448 11.4379 15.8051 -4.21131 3.81035 1.17412
583 1 11.5212 16.636 15.4842 -0.329006 -0.0699234 3.63368
584 1 6.14828 14.189 12.6584 -2.9256 -2.23528 2.49001
585 1 3.90293 14.4867 15.2503 -0.793165 2.31379 5.69969
586 1 3.39453 11.8907 13.1764 3.45108 -0.101855 4.11447
587 1 6.90501 19.3118 12.6088 0.627358 2.91478 -1.39521
588 1 4.58171 19.6904 15.2323 -4.14495 2.08531 -4.62217
589 1 6.79448 19.2691 17.604 -3.99257 3.50755 -0.89263
590 1 4.16207 17.1072 18.164 4.58196 -3.93783 -4.82327
591 1 6.52394 16.7053 15.5678 -4.36527 -3.47197 3.63067
592 1 6.11119 14.0889 17.7683 4.2813 -3.47755 1.58906
593 1 3.89776 14.5633 20.413 -4.15269 -5.11698 -0.507121
594 1 3.45776 11.9092 18.3806 3.14733 0.945058 0.170676
595 1 5.54445 11.4987 15.6266 -3.53697 -2.85927 -0.51894
596 1 4.6416 19.6561 20.3179 5.09322 2.67828 -1.13068
597 1 4.16544 17.1633 13.1059 4.97545 4.53668 -6.78219
598 1 6.36864 16.7293 10.3281 -1.80042 -3.06654 5.03166
599 1 5.69898 11.5911 10.5746 -5.96503 2.08476 -3.62962
600 1 9.68981 19.6803 20.2619 -1.32054 -1.5642 -1.24992
601 1 8.93989 14.4724 20.3307 -2.24279 -1.4403 2.06045
602 1 9.70449 19.6813 15.1488 1.06942 3.28897 4.654
603 1 9.21328 17.0421 12.9773 -0.399913 0.0041102 1.73459
604 1 8.9539 14.4633 15.1747 -1.8619 -1.62228 -1.11921
605 1 8.50146 11.879 13.0842 -1.70773 -3.56812 -4.17828
606 1 9.33076 17.0439 18.1586 0.821223 -2.60566 -0.346147
607 1 11.1404 14.0663 17.8228 -1.38141 -2.98978 -3.6424
608 1 8.5041 11.8767 18.2441 2.9748 -2.11215 -3.79433
609 2 11.8207 12.2244 17.2307 1.96905 -1.54144 -0.411816
610 2 12.7255 17.4525 16.9592 0.444099 0.400239 -1.00005
611 2 13.02 19.9805 16.3122 0.242049 -0.239286 0.490375
612 2 12.5184 17.3307 12.015 1.77053 0.46403 -0.0756359
613 2 10.0507 12.8427 14.1814 0.350531 -1.83653 -0.71016
614 2 11.8025 12.0297 12.1348 -0.778293 1.6379 1.04812
615 2 12.215 14.7229 11.1027 0.942713 1.59646 0.250841
616 2 11.3158 20.6264 14.0805 -1.11323 -0.46648 1.50097
617 2 10.8862 17.989 14.087 -1.84175 1.08623 -1.33995
618 2 13.0132 19.7966 11.1594 2.24145 0.580794 -0.261863
619 2 12.3491 14.841 16.3562 1.19668 0.548526 -0.510916
620 2 5.36659 15.4016 14.0843 0.29206 0.984284 -0.853148
621 2 4.95101 12.9168 14.2237 1.56291 -1.71735 1.01856
622 2 6.86264 12.3362 12.0171 -0.252613 -0.782728 -1.30536
623 2 2.23008 11.2306 14.6827 0.435402 -0.8323 1.10723
624 2 6.22831 20.6263 14.2104 1.34248 1.82392 -0.529499
625 2 5.81867 18.118 14.1281 -0.205847 -0.29453 -1.6482
626 2 7.63163 17.4429 11.9284 -2.33978 0.362005 -1.99135
627 2 8.05975 20.0902 11.2003 0.51253 0.853525 -1.8594
628 2 7.1737 14.8297 11.0718 -0.78499 1.24749 0.29211
629 2 5.27933 18.2892 16.5405 0.787629 -0.701323 1.41598
630 2 4.9449 15.7048 16.661 1.01819 1.00166 1.08034
631 2 5.8178 18.1637 19.2074 -0.497366 -1.30968 0.0557165
632 2 7.62646 17.4609 16.9803 1.9041 -0.826369 1.77191
633 2 2.95392 16.3589 19.5817 1.85963 -1.35502 0.589315
634 2 8.09185 20.047 16.3239 -0.926308 -0.710073 -1.6397
635 2 5.35532 15.55 19.1428 0.449863 -0.298824 0.259548
636 2 4.52127 13.0742 16.7694 -1.35134 -0.957132 -1.64378
637 2 3.93678 10.4931 16.7726 0.159569 0.277627 -1.39083
638 2 5.09678 12.8945 19.3591 -0.537996 -0.304084 1.0721
639 2 6.77909 12.2233 17.1393 0.269328 -0.995754 0.218937
640 2 2.23499 11.1521 19.7862 0.691371 0.109446 1.32255
641 2 2.68311 13.7167 18.9587 -0.841131 0.873877 0.372909
642 2 7.19287 14.8464 16.2662 -0.395872 -1.53056 -0.427353
643 2 6.22853 20.6754 19.2207 1.99931 -1.40485 -0.0789099
644 2 3.46988 18.9348 18.8487 0.535501 1.18475 0.638869
645 2 5.35373 18.3524 11.4365 0.0699385 -1.4442 -0.267042
646 2 4.89154 15.7783 11.4922 -1.14446 1.71447 0.239688
647 2 3.04454 16.3439 14.4553 1.18903 -1.88634 1.32533
648 2 4.52884 13.12 11.5349 0.411851 1.06609 1.11543
649 2 4.02433 10.541 11.7239 -0.901286 -0.617263 -0.558686
650 2 2.69743 13.813 13.7345 1.19234 -0.713586 0.886089
651 2 3.48512 18.9153 13.6972 -1.24959 1.38635 -0.560905
652 2 11.32 20.4813 19.2858 -1.07237 0.830909 0.629688
653 2 10.8505 17.9722 19.1719 0.519429 -0.339105 2.00296
654 2 9.94726 15.721 11.6398 0.576137 -0.910865 0.255618
655 2 8.16119 16.3207 14.5033 0.0616554 -0.621447 -0.686584
656 2 10.4249 15.3676 14.1513 2.01374 0.691461 -2.3169
657 2 9.69869 13.0659 11.469 -1.80227 1.26431 -0.732351
658 2 9.06349 10.5346 11.6277 -0.612973 0.0389556 0.826547
659 2 7.30866 11.1852 14.5466 -1.87573 1.16059 0.12177
660 2 7.86005 13.8256 13.6182 0.582658 -0.34126 -0.917564
661 2 10.2832 18.2695 11.4158 -1.1719 -0.396092 0.925013
662 2 8.57083 18.9386 13.7192 1.06734 0.165873 1.07167
663 2 9.06038 10.4524 16.7982 -0.414863 0.557027 -0.107763
664 2 7.28831 11.2192 19.656 -0.278857 -0.688269 1.10257
665 2 10.3109 18.242 16.5536 -1.0404 -1.01932 -1.29259
666 2 10.0138 15.5925 16.7395 -0.369838 1.05591 0.655672
667 2 8.15163 16.431 19.6397 0.614908 -1.35305 1.06065
668 2 8.55735 18.897 18.7417 -0.986726 1.71788 1.58588
669 2 10.419 15.4631 19.2574 1.45679 -0.616998 0.144671
670 2 9.57878 13.0732 16.6881 -0.313621 0.94354 1.14022
671 2 9.98832 12.8357 19.2763 -0.253093 -0.240405 -0.234304
672 2 7.81897 13.8161 18.834 0.486659 -0.115426 0.697912
97 1 20.2084 8.73753 7.46334 2.94748 4.01433 -3.54552
98 1 19.5672 3.62109 2.41758 4.28448 4.18166 -0.0521796
99 1 19.085 1.01658 0.30136 -1.09084 -0.558383 1.36213
100 1 20.1866 8.87631 2.35009 5.40502 1.30893 0.689646
101 1 19.8862 6.30305 0.183031 -1.30205 0.117657 2.2867
102 1 19.0442 1.06675 5.542 3.60517 5.26817 -0.980027
103 1 19.9206 6.26491 5.22104 3.67102 -1.53491 -1.17748
104 1 14.5477 3.81789 2.39528 -5.31647 2.99492 -3.61842
105 1 12.3024 4.11563 4.98715 0.928299 -1.25745 4.40486
106 1 11.794 1.51957 2.91326 0.167421 2.42629 -3.91956
107 1 15.3044 8.94063 2.34566 -4.55839 1.63199 5.25052
108 1 12.9811 9.31926 4.96913 -2.26609 1.67026 2.46606
109 1 15.1939 8.89798 7.34081 3.53468 -1.14768 4.90122
110 1 12.5615 6.7361 7.90087 4.30331 -3.94817 -4.14896
111 1 14.9234 6.33415 5.3047 0.303794 3.93847 -0.595423
112 1 14.5106 3.71777 7.50515 -4.79402 2.84455 3.86705
113 1 12.2972 4.19219 10.1499 1.15364 -3.15941 1.91915
114 1 11.8572 1.53805 8.11741 -2.76874 -1.08907 -3.99672
115 1 13.9439 1.1276 5.36341 -2.17271 4.30576 3.22916
116 1 13.041 9.28503 10.0547 2.68523 1.26426 -5.09563
117 1 12.5649 6.79223 2.84273 2.38187 1.85205 2.09953
118 1 14.7681 6.35818 0.0649531 -2.16894 4.27373 5.00369
119 1 14.0984 1.21993 0.311492 -1.38007 -5.07595 0.596419
120 1 18.0892 9.3092 9.99875 3.09395 1.12653 1.16064
121 1 17.3393 4.10125 10.0676 -1.6232 -4.00055 1.23803
122 1 18.1039 9.3102 4.88565 -1.72178 3.06477 5.19908
123 1 17.6127 6.67095 2.71417 5.59279 2.19298 -0.351201
124 1 17.3533 4.09214 4.91151 0.660641 2.35676 1.75236
125 1 16.9009 1.50791 2.82108 0.364628 5.81223 -4.00269
126 1 17.7302 6.67279 7.89548 1.53918 -0.286635 -2.91402
127 1 19.5398 3.69516 7.5597 4.70661 1.35741 -4.12322
128 1 16.9035 1.5056 7.98091 0.388845 1.91472 -1.77826
129 2 20.2201 1.85325 6.96757 0.0110446 -0.257811 -1.03834
130 2 21.1249 7.08138 6.69601 -0.40717 -1.7565 0.950396
131 2 21.4195 9.60939 6.04904 1.93093 -0.825435 1.32911
132 2 20.9178 6.95961 1.75183 2.44714 1.30672 0.720292
133 2 18.4501 2.47159 3.9183 -0.788353 -1.71148 0.611559
134 2 20.2019 1.65855 1.87163 1.44782 -1.11622 0.431457
135 2 20.6144 4.35174 0.839576 0.552587 -0.309665 0.170749
136 2 19.7152 10.2553 3.81737 0.929706 0.0818738 1.52894
137 2 19.2856 7.61786 3.82383 0.228494 -0.826355 -0.893943
138 2 21.4126 9.42551 0.896224 1.61005 -0.250794 -1.39187
139 2 20.7485 4.46991 6.09305 0.878238 -1.29586 -0.459375
140 2 13.766 5.03045 3.82117 -0.519407 1.6051 0.720823
141 2 13.3504 2.54566 3.96055 -0.186916 -1.95471 -1.1352
142 2 15.2621 1.96509 1.754 -1.49414 -1.90518 -1.29578
143 2 10.6295 0.85951 4.41955 1.162 1.04813 0.95665
144 2 14.6277 10.2551 3.94724 -0.559285 0.217307 -1.56363
145 2 14.2181 7.74684 3.86494 -0.825317 -0.741949 0.809994
146 2 16.0311 7.07174 1.6653 -0.263818 -1.32406 -1.32877
147 2 16.4592 9.71905 0.937144 1.04246 -1.26469 -1.30524
148 2 15.5731 4.45855 0.808635 -0.450946 0.627242 0.486043
149 2 13.6788 7.91811 6.27738 -1.05386 0.323801 0.381409
150 2 13.3443 5.3337 6.39781 -0.602678 0.697014 1.23674
151 2 14.2172 7.79256 8.94431 -1.36519 -2.15418 0.611698
152 2 16.0259 7.08976 6.71714 0.0444704 -1.03201 0.0997764
153 2 11.3534 5.98776 9.31853 2.24615 -1.46018 1.12816
154 2 16.4913 9.67587 6.06079 -0.533903 0.262496 -0.302465
155 2 13.7548 5.17884 8.87968 0.558963 1.31047 0.0516507
156 2 12.9207 2.70312 6.5063 -0.411634 -0.944893 -1.37288
157 2 12.3362 0.121993 6.50943 -0.318873 0.852097 -1.0107
158 2 13.4962 2.52336 9.09596 0.179278 0.0279023 -0.33806
159 2 15.1785 1.85222 6.87617 0.576373 -0.627752 -0.643213
160 2 10.6344 0.781011 9.52305 0.679736 -0.568143 -0.756314
161 2 11.0825 3.34557 8.69554 -0.230667 0.488093 -0.440505
162 2 15.5923 4.47528 6.00302 1.19589 -0.830847 0.867278
163 2 14.628 10.3043 8.9576 1.06019 -1.42111 -0.567
164 2 11.8693 8.56369 8.58555 -0.654015 0.519555 -0.960955
165 2 13.7532 7.98128 1.17333 -1.06204 0.528013 -0.266269
166 2 13.291 5.40722 1.22907 1.09697 0.67528 1.63702
167 2 11.444 5.97277 4.19215 0.825654 -1.07351 0.23775
168 2 12.9283 2.74889 1.27176 -1.13138 0.821947 -0.268681
169 2 12.4238 0.169842 1.46074 -0.10481 -0.494262 0.272551
170 2 11.0969 3.44189 3.47136 -0.221781 -0.870889 -0.730648
171 2 11.8845 8.54415 3.43405 -1.44258 2.67662 0.646512
172 2 19.7195 10.1102 9.02265 -0.485384 1.43807 -0.0958816
173 2 19.2499 7.60109 8.90873 1.41869 1.42145 1.53109
174 2 18.3467 5.34991 1.37662 0.380912 -1.11435 0.869844
175 2 16.5606 5.94959 4.24019 -0.787382 -1.11213 0.956222
176 2 18.8243 4.99652 3.88812 1.08933 1.02829 0.266541
177 2 18.0981 2.69479 1.20585 -1.31057 0.0711059 1.45233
178 2 17.4629 0.16346 1.36457 0.231375 -0.622443 -1.47176
179 2 15.7081 0.814114 4.2835 -1.62554 -0.163548 0.997861
180 2 16.2595 3.45446 3.35502 -1.45593 1.10441 1.52547
181 2 18.6826 7.89834 1.1527 1.54573 1.87519 -1.15236
182 2 16.9703 8.56744 3.45602 0.91476 1.46413 0.799027
183 2 17.4598 0.0812773 6.53509 0.229712 0.0713385 1.08953
184 2 15.6877 0.848094 9.39286 0.613084 -0.197555 -0.456209
185 2 18.7103 7.87084 6.29049 1.49006 0.752244 -1.25655
186 2 18.4133 5.22136 6.47632 -1.07672 -0.304626 1.34871
187 2 16.5511 6.05985 9.37656 0.971979 -0.783935 1.07424
188 2 16.9568 8.52585 8.47853 -0.56463 2.06547 0.361817
189 2 18.8184 5.092 8.99427 -0.865461 0.655282 1.02653
190 2 17.9782 2.70204 6.42491 -1.80807 1.06678 -0.728621
191 2 18.3878 2.46458 9.01312 1.24363 -0.551201 1.82406
192 2 16.2184 3.44495 8.57088 -2.0803 -1.32031 0.240967
481 1 20.2084 8.73753 17.7265 0.44315 6.01083 1.6173
482 1 19.5672 3.62109 12.6807 3.69804 5.00951 3.79856
483 1 19.085 1.01658 10.5645 -4.27746 -0.922491 0.31685
484 1 20.1866 8.87631 12.6132 -1.29178 -3.68075 1.54694
485 1 19.8862 6.30305 10.4462 -1.03298 4.20894 -0.200349
486 1 19.0442 1.06675 15.8051 -3.22585 4.37222 -1.08023
487 1 19.9206 6.26491 15.4842 1.69187 0.290985 0.483037
488 1 14.5477 3.81789 12.6584 3.32908 -2.04431 -3.44377
489 1 12.3024 4.11563 15.2503 -5.21298 4.01714 5.15135
490 1 11.794 1.51957 13.1764 1.4403 1.87866 2.99183
491 1 15.3044 8.94063 12.6088 1.94627 -0.528269 4.77713
492 1 12.9811 9.31926 15.2323 -1.0885 4.77026 -5.45835
493 1 15.1939 8.89798 17.604 -3.01938 4.86786 2.07261
494 1 12.5615 6.7361 18.164 0.839104 0.2578 0.484396
495 1 14.9234 6.33415 15.5678 2.53319 1.07319 0.335052
496 1 14.5106 3.71777 17.7683 -5.19135 1.06084 1.69994
497 1 12.2972 4.19219 20.413 0.859382 -5.60322 1.58577
498 1 11.8572 1.53805 18.3806 0.25059 4.36965 -3.98254
499 1 13.9439 1.1276 15.6266 5.1631 4.11438 2.38695
500 1 13.041 9.28503 20.3179 4.81721 3.16337 3.96542
501 1 12.5649 6.79223 13.1059 3.71814 -3.95694 -3.44143
502 1 14.7681 6.35818 10.3281 -2.63137 1.83453 3.36266
503 1 14.0984 1.21993 10.5746 -0.473382 -2.10769 0.831893
504 1 18.0892 9.3092 20.2619 -2.60425 1.41306 0.846635
505 1 17.3393 4.10125 20.3307 1.65745 2.72898 -2.97279
506 1 18.1039 9.3102 15.1488 0.421311 -2.47251 3.19857
507 1 17.6127 6.67095 12.9773 2.19968 -0.0457208 -0.69619
508 1 17.3533 4.09214 15.1747 -5.69638 -0.152207 -2.4745
509 1 16.9009 1.50791 13.0842 -3.2384 -3.59814 3.53922
510 1 17.7302 6.67279 18.1586 0.932796 -1.368 1.81177
511 1 19.5398 3.69516 17.8228 -0.722598 -0.367582 0.686983
512 1 16.9035 1.5056 18.2441 -0.592627 3.68219 -5.23905
513 2 20.2201 1.85325 17.2307 0.89288 -1.9487 -1.4548
514 2 21.1249 7.08138 16.9592 -1.30919 -1.4893 -0.399442
515 2 21.4195 9.60939 16.3122 -0.342505 -1.04672 -0.614731
516 2 20.9178 6.95961 12.015 2.40219 1.46759 -1.01368
517 2 18.4501 2.47159 14.1814 -0.0660112 -2.02864 0.253288
518 2 20.2019 1.65855 12.1348 0.2537 1.45853 -1.48555
519 2 20.6144 4.35174 11.1027 0.730383 0.972776 0.168605
520 2 19.7152 10.2553 14.0805 0.612802 0.883989 1.99943
521 2 19.2856 7.61786 14.087 -1.40039 1.68334 0.577303
522 2 21.4126 9.42551 11.1594 1.33986 1.86669 -1.90859
523 2 20.7485 4.46991 16.3562 -1.30346 -1.57317 0.916316
524 2 13.766 5.03045 14.0843 -0.269287 1.96159 0.703261
525 2 13.3504 2.54566 14.2237 -0.368634 -0.286222 0.265577
526 2 15.2621 1.96509 12.0171 1.00111 -1.84073 0.460457
527 2 10.6295 0.85951 14.6827 0.738454 -0.106484 0.221113