LAMMPS (23 Jun 2022 - Update 3)
  using 1 OpenMP thread(s) per MPI task
#
#--------------------------- Simulation variables -----------------------------#
  # Initalizes the random number generator.
#  variable         rnd equal 7777 # round(random(0,999,${RANDOM}))

  # Simulation control parameters.
  variable          T equal 500

  # Simulation steps (t_eq)
  variable          t_eq equal 100
  variable          output equal 1 #freq to print output
  variable          dumpstep equal 1

#------------------------------------------------------------------------------#


#---------------------------- Atomic setup ------------------------------------#
  units            metal
  #boundary         f f f
  boundary         p p p
  # Create atoms.
  box tilt large
  read_data        ./res.dat
Reading data file ...
  triclinic box = (0 0 0) to (10.129786 10.371119 10.263143) with tilt (1.7303548 0 0)
  1 by 1 by 1 MPI processor grid
  reading atoms ...
  96 atoms
  read_data CPU = 0.001 seconds
  replicate 2 2 2
Replicating atoms ...
  triclinic box = (0 0 0) to (20.259573 20.742238 20.526287) with tilt (3.4607097 0 0)
  1 by 1 by 1 MPI processor grid
  768 atoms
  replicate CPU = 0.000 seconds

  # Define interatomic potential.
  pair_style       e3gnn
PairE3GNN using device : CUDA
  pair_coeff       * * ./deployed_serial.pt Hf O
from sevenn version '1.00' single precision model trained at 2023-05-15 is loaded

  timestep         0.002

#----------------------------- Run simulation ---------------------------------#

    # Setup output
    thermo          ${output} 			#because it is realaxation
    thermo          1 			
    compute         atompe all pe/atom					#compute atomic energy which is correspond to NNP atomic energy
    thermo_style    custom step tpcpu pe ke vol press temp #recod these value (custom setting)
    dump            mydump all custom 1 dump.traj id type x y z fx fy fz

    fix f1 all nph tri 0.0 0.0 1.0
    fix               comfix all momentum 1 linear 1 1 1
    velocity        all create ${T} 1 dist gaussian mom yes
    velocity        all create 500 1 dist gaussian mom yes

    #fix f1 all nph aniso 0.0 0.0 1.0
    #dump            newd all custom 1 ff.traj id type x y z f_f3[*]

    fix f2 all langevin ${T} ${T} 0.1 999
    fix f2 all langevin 500 ${T} 0.1 999
    fix f2 all langevin 500 500 0.1 999

    run 3
Generated 0 of 1 mixed pair_coeff terms from geometric mixing rule
Neighbor list info ...
  update every 1 steps, delay 10 steps, check yes
  max neighbors/atom: 2000, page size: 100000
  master list distance cutoff = 6
  ghost atom cutoff = 6
  binsize = 3, bins = 8 7 7
  1 neighbor lists, perpetual/occasional/extra = 1 0 0
  (1) pair e3gnn, perpetual
      attributes: full, newton on
      pair build: full/bin/atomonly
      stencil: full/bin/3d
      bin: standard
Per MPI rank memory allocation (min/avg/max) = 4.582 | 4.582 | 4.582 Mbytes
   Step         T/CPU          PotEng         KinEng         Volume         Press           Temp     
         0   0             -7798.6587      49.571266      8625.7383      6138.3667      500          
         1   0.0037796845  -7797.8018      47.529162      8625.79        5885.4595      479.40235    
         2   0.00018202256 -7795.8647      45.496567      8625.9408      5633.6681      458.9006     
         3   0.016336145   -7793.1763      43.327014      8626.1865      5364.8676      437.01743    
Loop time of 11.6392 on 1 procs for 3 steps with 768 atoms

Performance: 0.045 ns/day, 538.854 hours/ns, 0.258 timesteps/s
94.4% CPU use with 1 MPI tasks x 1 OpenMP threads

MPI task timing breakdown:
Section |  min time  |  avg time  |  max time  |%varavg| %total
---------------------------------------------------------------
Pair    | 11.632     | 11.632     | 11.632     |   0.0 | 99.94
Neigh   | 0          | 0          | 0          |   0.0 |  0.00
Comm    | 0.00014101 | 0.00014101 | 0.00014101 |   0.0 |  0.00
Output  | 0.0069715  | 0.0069715  | 0.0069715  |   0.0 |  0.06
Modify  | 0.00040898 | 0.00040898 | 0.00040898 |   0.0 |  0.00
Other   |            | 2.983e-05  |            |       |  0.00

Nlocal:            768 ave         768 max         768 min
Histogram: 1 0 0 0 0 0 0 0 0 0
Nghost:           2196 ave        2196 max        2196 min
Histogram: 1 0 0 0 0 0 0 0 0 0
Neighs:              0 ave           0 max           0 min
Histogram: 1 0 0 0 0 0 0 0 0 0
FullNghs:        60672 ave       60672 max       60672 min
Histogram: 1 0 0 0 0 0 0 0 0 0

Total # of neighbors = 60672
Ave neighs/atom = 79
Neighbor list builds = 0
Dangerous builds = 0
    run 10
Generated 0 of 1 mixed pair_coeff terms from geometric mixing rule
Per MPI rank memory allocation (min/avg/max) = 4.583 | 4.583 | 4.583 Mbytes
   Step         T/CPU          PotEng         KinEng         Volume         Press           Temp     
         3   0             -7793.1763      43.327014      8626.1865      5364.8676      437.01743    
         4   0.00066192019 -7790.4854      39.831499      8626.5226      4931.8515      401.75996    
         5   0.017055173   -7788.4536      38.43156       8626.9418      4758.2827      387.63949    
         6   0.017130961   -7787.3208      37.756318      8627.4413      4674.4091      380.82867    
         7   0.017196303   -7787.0518      38.106398      8628.0196      4717.4344      384.35974    
         8   0.017190396   -7787.4268      38.864785      8628.6775      4810.9532      392.00921    
         9   0.017179384   -7787.979       39.633916      8629.4167      4905.7413      399.76704    
        10   0.017206454   -7788.5229      40.600685      8630.2389      5024.9257      409.51834    
        11   0.017178566   -7788.7798      41.231011      8631.146       5102.4013      415.87612    
        12   0.017183617   -7788.6509      41.604576      8632.1395      5148.038       419.64407    
        13   0.017179799   -7788.3799      41.671721      8633.2203      5155.7008      420.32133    
Loop time of 4.07008 on 1 procs for 10 steps with 768 atoms

Performance: 0.425 ns/day, 56.529 hours/ns, 2.457 timesteps/s
99.3% CPU use with 1 MPI tasks x 1 OpenMP threads

MPI task timing breakdown:
Section |  min time  |  avg time  |  max time  |%varavg| %total
---------------------------------------------------------------
Pair    | 4.0459     | 4.0459     | 4.0459     |   0.0 | 99.41
Neigh   | 0          | 0          | 0          |   0.0 |  0.00
Comm    | 0.00021792 | 0.00021792 | 0.00021792 |   0.0 |  0.01
Output  | 0.022738   | 0.022738   | 0.022738   |   0.0 |  0.56
Modify  | 0.0011633  | 0.0011633  | 0.0011633  |   0.0 |  0.03
Other   |            | 4.353e-05  |            |       |  0.00

Nlocal:            768 ave         768 max         768 min
Histogram: 1 0 0 0 0 0 0 0 0 0
Nghost:           2209 ave        2209 max        2209 min
Histogram: 1 0 0 0 0 0 0 0 0 0
Neighs:              0 ave           0 max           0 min
Histogram: 1 0 0 0 0 0 0 0 0 0
FullNghs:        60714 ave       60714 max       60714 min
Histogram: 1 0 0 0 0 0 0 0 0 0

Total # of neighbors = 60714
Ave neighs/atom = 79.054688
Neighbor list builds = 0
Dangerous builds = 0

  write_data after.dat
System init for write_data ...
Generated 0 of 1 mixed pair_coeff terms from geometric mixing rule
#------------------------------------------------------------------------------#
Total wall time: 0:00:29
