LAMMPS (23 Jun 2022 - Update 1)
OMP_NUM_THREADS environment is not set. Defaulting to 1 thread. (src/comm.cpp:98)
  using 1 OpenMP thread(s) per MPI task
#
#--------------------------- Simulation variables -----------------------------#
  # Initalizes the random number generator.
#  variable         rnd equal 7777 # round(random(0,999,${RANDOM}))

  # Simulation control parameters.
  variable          T equal 500

  # Simulation steps (t_eq)
  variable          t_eq equal 100
  variable          output equal 1 #freq to print output
  variable          dumpstep equal 1

#------------------------------------------------------------------------------#


#---------------------------- Atomic setup ------------------------------------#
  units            metal
  #boundary         f f f
  boundary         p p p
  # Create atoms.
  box tilt large
  read_data        ./res.dat
Reading data file ...
  triclinic box = (0 0 0) to (10.129786 10.371119 10.263143) with tilt (1.7303548 0 0)
  1 by 1 by 1 MPI processor grid
  reading atoms ...
  96 atoms
  read_data CPU = 0.001 seconds
  replicate 2 2 2
Replicating atoms ...
  triclinic box = (0 0 0) to (20.259573 20.742238 20.526287) with tilt (3.4607097 0 0)
  1 by 1 by 1 MPI processor grid
  768 atoms
  replicate CPU = 0.000 seconds

  # Define interatomic potential.
  pair_style       e3gnn
PairE3GNN using device : CPU
  pair_coeff       * * ./deployed_model_10.pt Hf O
from simple_gnn version '1.00' single precision model trained at 2023-05-07 is loaded

  timestep         0.002

#----------------------------- Run simulation ---------------------------------#

    # Setup output
    thermo          ${output} 			#because it is realaxation
    thermo          1 			
    compute         atompe all pe/atom					#compute atomic energy which is correspond to NNP atomic energy
    thermo_style    custom step tpcpu pe ke vol press temp #recod these value (custom setting)
    dump            mydump all custom 1 dump.traj id type x y z fx fy fz

    fix f1 all nph tri 0.0 0.0 1.0
    fix               comfix all momentum 1 linear 1 1 1
    velocity        all create ${T} 1 dist gaussian mom yes
    velocity        all create 500 1 dist gaussian mom yes

    #fix f1 all nph aniso 0.0 0.0 1.0
    #dump            newd all custom 1 ff.traj id type x y z f_f3[*]

    fix f2 all langevin ${T} ${T} 0.1 999
    fix f2 all langevin 500 ${T} 0.1 999
    fix f2 all langevin 500 500 0.1 999

    run 3
Generated 0 of 1 mixed pair_coeff terms from geometric mixing rule
Neighbor list info ...
  update every 1 steps, delay 10 steps, check yes
  max neighbors/atom: 2000, page size: 100000
  master list distance cutoff = 6
  ghost atom cutoff = 6
  binsize = 3, bins = 8 7 7
  1 neighbor lists, perpetual/occasional/extra = 1 0 0
  (1) pair e3gnn, perpetual
      attributes: full, newton on
      pair build: full/bin/atomonly
      stencil: full/bin/3d
      bin: standard
Per MPI rank memory allocation (min/avg/max) = 4.582 | 4.582 | 4.582 Mbytes
   Step         T/CPU          PotEng         KinEng         Volume         Press           Temp     
         0   0             -22215.33       49.571266      8625.7383     -8321.1591      500          
         1   0.012565995   -22215.088      48.098446      8625.6684     -7307.9427      485.14442    
         2   0.00049271266 -22214.672      47.566207      8625.4757     -6636.0632      479.776      
         3   0.063982392   -22214.084      47.393975      8625.1716     -6490.4364      478.03878    
Loop time of 4.24961 on 1 procs for 3 steps with 768 atoms

Performance: 0.122 ns/day, 196.741 hours/ns, 0.706 timesteps/s
97.4% CPU use with 1 MPI tasks x 1 OpenMP threads

MPI task timing breakdown:
Section |  min time  |  avg time  |  max time  |%varavg| %total
---------------------------------------------------------------
Pair    | 4.2457     | 4.2457     | 4.2457     |   0.0 | 99.91
Neigh   | 0          | 0          | 0          |   0.0 |  0.00
Comm    | 4.1e-05    | 4.1e-05    | 4.1e-05    |   0.0 |  0.00
Output  | 0.0036101  | 0.0036101  | 0.0036101  |   0.0 |  0.08
Modify  | 0.0002269  | 0.0002269  | 0.0002269  |   0.0 |  0.01
Other   |            | 1.17e-05   |            |       |  0.00

Nlocal:            768 ave         768 max         768 min
Histogram: 1 0 0 0 0 0 0 0 0 0
Nghost:           2196 ave        2196 max        2196 min
Histogram: 1 0 0 0 0 0 0 0 0 0
Neighs:              0 ave           0 max           0 min
Histogram: 1 0 0 0 0 0 0 0 0 0
FullNghs:        60672 ave       60672 max       60672 min
Histogram: 1 0 0 0 0 0 0 0 0 0

Total # of neighbors = 60672
Ave neighs/atom = 79
Neighbor list builds = 0
Dangerous builds = 0
    run 10
Generated 0 of 1 mixed pair_coeff terms from geometric mixing rule
Per MPI rank memory allocation (min/avg/max) = 4.582 | 4.582 | 4.582 Mbytes
   Step         T/CPU          PotEng         KinEng         Volume         Press           Temp     
         3   0             -22214.084      47.393975      8625.1716     -6490.4345      478.03878    
         4   0.064270244   -22213.418      45.561813      8624.7584     -7088.4505      459.5587     
         5   0.050181782   -22212.787      45.115822      8624.2261     -7912.9477      455.06022    
         6   0.063092876   -22212.232      44.799873      8623.5609     -9040.056       451.8734     
         7   0.045804114   -22211.832      44.854737      8622.7439     -10554.248      452.42679    
         8   0.063756806   -22211.625      45.071488      8621.7496     -12077.683      454.61304    
         9   0.063578854   -22211.549      45.367531      8620.5526     -14053.036      457.59908    
        10   0.062347444   -22211.729      46.046374      8619.1197     -15879.549      464.44622    
        11   0.060496617   -22212.096      46.797522      8617.4205     -17952.792      472.02267    
        12   0.062786857   -22212.572      47.753643      8615.4205     -19847.406      481.66658    
        13   0.064022741   -22213.184      48.730084      8613.0882     -21512.438      491.51543    
Loop time of 0.337433 on 1 procs for 10 steps with 768 atoms

Performance: 5.121 ns/day, 4.687 hours/ns, 29.636 timesteps/s
100.0% CPU use with 1 MPI tasks x 1 OpenMP threads

MPI task timing breakdown:
Section |  min time  |  avg time  |  max time  |%varavg| %total
---------------------------------------------------------------
Pair    | 0.3234     | 0.3234     | 0.3234     |   0.0 | 95.84
Neigh   | 0          | 0          | 0          |   0.0 |  0.00
Comm    | 0.0001449  | 0.0001449  | 0.0001449  |   0.0 |  0.04
Output  | 0.013132   | 0.013132   | 0.013132   |   0.0 |  3.89
Modify  | 0.0007205  | 0.0007205  | 0.0007205  |   0.0 |  0.21
Other   |            | 3.67e-05   |            |       |  0.01

Nlocal:            768 ave         768 max         768 min
Histogram: 1 0 0 0 0 0 0 0 0 0
Nghost:           2205 ave        2205 max        2205 min
Histogram: 1 0 0 0 0 0 0 0 0 0
Neighs:              0 ave           0 max           0 min
Histogram: 1 0 0 0 0 0 0 0 0 0
FullNghs:        60702 ave       60702 max       60702 min
Histogram: 1 0 0 0 0 0 0 0 0 0

Total # of neighbors = 60702
Ave neighs/atom = 79.039062
Neighbor list builds = 0
Dangerous builds = 0

  write_data after.dat
System init for write_data ...
Generated 0 of 1 mixed pair_coeff terms from geometric mixing rule
#------------------------------------------------------------------------------#
Total wall time: 0:00:04
