ITEM: TIMESTEP
0
ITEM: NUMBER OF ATOMS
768
ITEM: BOX BOUNDS xy xz yz pp pp pp
0.0000000000000000e+00 2.3720282300000001e+01 3.4607096799999999e+00
0.0000000000000000e+00 2.0742237880000001e+01 0.0000000000000000e+00
0.0000000000000000e+00 2.0526286599999999e+01 0.0000000000000000e+00
ITEM: ATOMS id type x y z fx fy fz
1 1 10.0786 8.73753 7.46334 -0.406061 0.500143 0.19119
2 1 9.43739 3.62109 2.41758 -1.36507 0.0771427 -0.116998
3 1 8.95523 1.01658 0.30136 -1.11048 -0.233554 -0.190526
4 1 10.0568 8.87631 2.35009 -0.615717 -0.493866 0.280116
5 1 9.75639 6.30305 0.183031 -1.36217 -0.446492 0.342435
6 1 8.91444 1.06675 5.542 -0.956183 0.174256 -0.712243
7 1 9.79081 6.26491 5.22104 -1.06653 -0.237835 0.772153
8 1 4.41793 3.81789 2.39528 -1.58305 -0.229927 -0.269459
9 1 2.17257 4.11563 4.98715 0.386413 0.238893 0.0513617
10 1 1.66418 1.51957 2.91326 1.10386 0.272735 -0.0359733
11 1 5.17465 8.94063 2.34566 -1.14969 -0.339467 0.397716
12 1 2.85135 9.31926 4.96913 1.01719 0.0188509 -0.247508
13 1 5.06412 8.89798 7.34081 -0.504163 -0.107011 0.762315
14 1 2.43172 6.7361 7.90087 1.27984 -0.0106363 -0.260201
15 1 4.79358 6.33415 5.3047 -1.7426 -0.16439 -0.301305
16 1 4.38084 3.71777 7.50515 -1.21004 0.0206268 0.187141
17 1 2.1674 4.19219 10.1499 0.485071 0.0235825 -0.603208
18 1 1.7274 1.53805 8.11741 0.665506 0.335506 -0.692859
19 1 3.8141 1.1276 5.36341 -0.605075 -0.200713 0.368974
20 1 2.91125 9.28503 10.0547 0.813973 0.205855 0.0460749
21 1 2.43509 6.79223 2.84273 1.66801 -0.616649 -1.0529
22 1 4.63829 6.35818 0.0649531 -0.249188 -0.120624 0.623998
23 1 3.96862 1.21993 0.311492 -1.36521 -0.372503 0.0188055
24 1 7.95946 9.3092 9.99875 0.622344 -0.0748681 0.157961
25 1 7.20954 4.10125 10.0676 0.761902 0.414255 0.316228
26 1 7.97413 9.3102 4.88565 1.20198 0.0215643 0.452276
27 1 7.48292 6.67095 2.71417 1.93181 0.451539 0.393008
28 1 7.22354 4.09214 4.91151 0.447434 -0.0079959 0.582219
29 1 6.7711 1.50791 2.82108 1.23231 0.237966 -0.113439
30 1 7.6004 6.67279 7.89548 0.645069 -0.049964 -0.5574
31 1 9.41002 3.69516 7.5597 -0.790122 0.0381577 0.162617
32 1 6.77375 1.5056 7.98091 0.715492 0.109663 -0.614424
33 2 10.0903 1.85325 6.96757 0.67688 -0.552893 -0.153142
34 2 10.9951 7.08138 6.69601 -0.149015 -0.573168 -0.268096
35 2 11.2897 9.60939 6.04904 0.619542 -0.476962 0.129316
36 2 10.788 6.95961 1.75183 0.982571 -0.315867 -0.101486
37 2 8.32036 2.47159 3.9183 0.472018 0.107163 0.306472
38 2 10.0721 1.65855 1.87163 0.40235 -0.0648297 -0.348507
39 2 10.4846 4.35174 0.839576 0.378702 -0.00419693 0.372038
40 2 9.58544 10.2553 3.81737 0.43185 0.30393 0.49303
41 2 9.15582 7.61786 3.82383 -0.437029 0.57459 0.110909
42 2 11.2828 9.42551 0.896224 0.828641 0.41613 -0.450538
43 2 10.6187 4.46991 6.09305 0.0192997 -0.207213 0.159224
44 2 3.63624 5.03045 3.82117 0.456918 1.26996 -0.0770775
45 2 3.22065 2.54566 3.96055 0.725912 -0.179692 -0.179668
46 2 5.13228 1.96509 1.754 -0.134757 -0.613526 -0.441541
47 2 0.499723 0.85951 4.41955 -0.21209 0.103824 -0.168541
48 2 4.49795 10.2551 3.94724 0.521434 0.568322 -0.158556
49 2 4.08832 7.74684 3.86494 0.013385 -0.0980074 -0.377814
50 2 5.90127 7.07174 1.6653 -0.8157 -0.304231 -0.749534
51 2 6.32939 9.71905 0.937144 0.600181 -0.239889 -0.303401
52 2 5.44335 4.45855 0.808635 0.300556 0.285201 -0.185868
53 2 3.54898 7.91811 6.27738 -0.21251 -0.726591 0.633214
54 2 3.21455 5.3337 6.39781 -0.274674 -0.118117 0.306228
55 2 4.08744 7.79256 8.94431 -0.036597 -0.0549171 -0.261743
56 2 5.89611 7.08976 6.71714 0.431916 -0.34407 0.341375
57 2 1.22356 5.98776 9.31853 0.84382 -0.164478 -0.0229557
58 2 6.3615 9.67587 6.06079 -0.282181 0.155573 -0.339253
59 2 3.62497 5.17884 8.87968 0.126167 0.179837 0.176425
60 2 2.79092 2.70312 6.5063 -0.737422 -0.0994796 -0.215357
61 2 2.20642 0.121993 6.50943 -0.0177645 0.0609289 -0.228227
62 2 3.36642 2.52336 9.09596 -0.214101 0.673138 -0.253418
63 2 5.04873 1.85222 6.87617 0.430324 -0.300744 -0.575383
64 2 0.504634 0.781011 9.52305 -0.32356 0.247539 -0.0682068
65 2 0.952754 3.34557 8.69554 0.0659425 0.388057 0.108699
66 2 5.46251 4.47528 6.00302 0.549349 -0.466734 -0.00904554
67 2 4.49818 10.3043 8.9576 0.761046 -0.0988284 0.38106
68 2 1.73952 8.56369 8.58555 -0.303647 0.140997 -0.0951403
69 2 3.62337 7.98128 1.17333 -0.440446 -0.626707 0.496032
70 2 3.16119 5.40722 1.22907 -0.406273 -0.0879002 0.754138
71 2 1.31419 5.97277 4.19215 0.147429 -0.551557 0.417082
72 2 2.79848 2.74889 1.27176 -0.468052 -0.00520997 0.563399
73 2 2.29398 0.169842 1.46074 -0.116984 -0.087988 -0.642532
74 2 0.967076 3.44189 3.47136 -0.14507 -0.0633922 0.0547724
75 2 1.75476 8.54415 3.43405 -0.653445 1.21877 0.359405
76 2 9.58968 10.1102 9.02265 0.262643 1.14994 -0.0661494
77 2 9.1201 7.60109 8.90873 0.103509 0.610702 0.405571
78 2 8.21691 5.34991 1.37662 -0.118328 -0.935712 -0.366044
79 2 6.43084 5.94959 4.24019 -0.0967325 0.171396 -0.215431
80 2 8.69455 4.99652 3.88812 0.718564 0.587266 -0.530374
81 2 7.96834 2.69479 1.20585 -0.887495 0.102968 0.290826
82 2 7.33314 0.16346 1.36457 -0.576127 -0.637137 -0.545507
83 2 5.57831 0.814114 4.2835 -0.728077 0.615627 -0.202226
84 2 6.1297 3.45446 3.35502 -0.277075 0.267302 0.489269
85 2 8.55281 7.89834 1.1527 -0.256161 -0.092608 0.242559
86 2 6.84048 8.56744 3.45602 -0.205023 0.00131158 0.0935818
87 2 7.33002 0.0812773 6.53509 -0.447852 -0.0645957 -0.216178
88 2 5.55796 0.848094 9.39286 0.0667572 -0.566538 0.239255
89 2 8.58051 7.87084 6.29049 -0.0279314 -0.716375 -0.0963645
90 2 8.28348 5.22136 6.47632 -0.297935 0.066577 -0.150018
91 2 6.42128 6.05985 9.37656 -0.235973 -0.416965 0.0407995
92 2 6.82699 8.52585 8.47853 -0.114868 0.861256 0.785005
93 2 8.68866 5.092 8.99427 0.0154455 0.114646 -0.278626
94 2 7.84842 2.70204 6.42491 -0.723928 -0.190861 -0.046349
95 2 8.25797 2.46458 9.01312 0.947273 0.112027 0.377128
96 2 6.08861 3.44495 8.57088 -0.422467 0.258825 -0.0766751
97 1 20.2084 8.73753 7.46334 -0.406059 0.500145 0.191187
98 1 19.5672 3.62109 2.41758 -1.36507 0.0771419 -0.116998
99 1 19.085 1.01658 0.30136 -1.11048 -0.233553 -0.190527
100 1 20.1866 8.87631 2.35009 -0.615718 -0.493868 0.280116
101 1 19.8862 6.30305 0.183031 -1.36217 -0.446491 0.342438
102 1 19.0442 1.06675 5.542 -0.956177 0.174254 -0.712244
103 1 19.9206 6.26491 5.22104 -1.06652 -0.237834 0.772151
104 1 14.5477 3.81789 2.39528 -1.58305 -0.229926 -0.269462
105 1 12.3024 4.11563 4.98715 0.386419 0.238891 0.05136
106 1 11.794 1.51957 2.91326 1.10386 0.272733 -0.0359743
107 1 15.3044 8.94063 2.34566 -1.14969 -0.339467 0.397717
108 1 12.9811 9.31926 4.96913 1.01719 0.0188511 -0.247506
109 1 15.1939 8.89798 7.34081 -0.504165 -0.10701 0.762317
110 1 12.5615 6.7361 7.90087 1.27984 -0.0106355 -0.2602
111 1 14.9234 6.33415 5.3047 -1.74261 -0.164392 -0.301305
112 1 14.5106 3.71777 7.50515 -1.21004 0.0206272 0.187141
113 1 12.2972 4.19219 10.1499 0.485073 0.023582 -0.603209
114 1 11.8572 1.53805 8.11741 0.665511 0.335507 -0.692857
115 1 13.9439 1.1276 5.36341 -0.605074 -0.200711 0.368974
116 1 13.041 9.28503 10.0547 0.813973 0.205855 0.0460759
117 1 12.5649 6.79223 2.84273 1.66801 -0.616648 -1.0529
118 1 14.7681 6.35818 0.0649531 -0.249188 -0.120625 0.623998
119 1 14.0984 1.21993 0.311492 -1.36521 -0.372501 0.0188059
120 1 18.0892 9.3092 9.99875 0.622344 -0.0748693 0.157964
121 1 17.3393 4.10125 10.0676 0.761904 0.414258 0.316227
122 1 18.1039 9.3102 4.88565 1.20198 0.0215647 0.45228
123 1 17.6127 6.67095 2.71417 1.93181 0.45154 0.39301
124 1 17.3533 4.09214 4.91151 0.447432 -0.00799483 0.582217
125 1 16.9009 1.50791 2.82108 1.23232 0.237968 -0.11344
126 1 17.7302 6.67279 7.89548 0.64507 -0.0499639 -0.557401
127 1 19.5398 3.69516 7.5597 -0.790121 0.0381566 0.162617
128 1 16.9035 1.5056 7.98091 0.715491 0.109664 -0.614424
129 2 20.2201 1.85325 6.96757 0.676883 -0.552892 -0.153139
130 2 21.1249 7.08138 6.69601 -0.149009 -0.573167 -0.268095
131 2 21.4195 9.60939 6.04904 0.619534 -0.476962 0.12932
132 2 20.9178 6.95961 1.75183 0.982564 -0.315866 -0.101489
133 2 18.4501 2.47159 3.9183 0.47202 0.107163 0.306472
134 2 20.2019 1.65855 1.87163 0.402346 -0.0648298 -0.34851
135 2 20.6144 4.35174 0.839576 0.378709 -0.00419838 0.372035
136 2 19.7152 10.2553 3.81737 0.431854 0.303929 0.49303
137 2 19.2856 7.61786 3.82383 -0.437029 0.574589 0.110908
138 2 21.4126 9.42551 0.896224 0.828644 0.41613 -0.45054
139 2 20.7485 4.46991 6.09305 0.0193127 -0.207213 0.159218
140 2 13.766 5.03045 3.82117 0.456917 1.26996 -0.0770797
141 2 13.3504 2.54566 3.96055 0.725916 -0.179694 -0.179666
142 2 15.2621 1.96509 1.754 -0.134757 -0.613528 -0.441542
143 2 10.6295 0.85951 4.41955 -0.212082 0.10382 -0.168541
144 2 14.6277 10.2551 3.94724 0.521433 0.568321 -0.158556
145 2 14.2181 7.74684 3.86494 0.013386 -0.0980069 -0.377817
146 2 16.0311 7.07174 1.6653 -0.815698 -0.30423 -0.749533
147 2 16.4592 9.71905 0.937144 0.600182 -0.239892 -0.3034
148 2 15.5731 4.45855 0.808635 0.300555 0.2852 -0.185868
149 2 13.6788 7.91811 6.27738 -0.21251 -0.72659 0.633214
150 2 13.3443 5.3337 6.39781 -0.274671 -0.118116 0.306229
151 2 14.2172 7.79256 8.94431 -0.0365949 -0.0549175 -0.261743
152 2 16.0259 7.08976 6.71714 0.431923 -0.344069 0.341379
153 2 11.3534 5.98776 9.31853 0.843815 -0.164477 -0.0229543
154 2 16.4913 9.67587 6.06079 -0.282177 0.155573 -0.339253
155 2 13.7548 5.17884 8.87968 0.126169 0.179837 0.176423
156 2 12.9207 2.70312 6.5063 -0.737419 -0.0994806 -0.215356
157 2 12.3362 0.121993 6.50943 -0.0177712 0.0609303 -0.228228
158 2 13.4962 2.52336 9.09596 -0.2141 0.673139 -0.25342
159 2 15.1785 1.85222 6.87617 0.430323 -0.300744 -0.575383
160 2 10.6344 0.781011 9.52305 -0.323555 0.247536 -0.0682094
161 2 11.0825 3.34557 8.69554 0.0659437 0.388056 0.108699
162 2 15.5923 4.47528 6.00302 0.549351 -0.466734 -0.00904477
163 2 14.628 10.3043 8.9576 0.76105 -0.0988295 0.38106
164 2 11.8693 8.56369 8.58555 -0.303649 0.140995 -0.0951414
165 2 13.7532 7.98128 1.17333 -0.440445 -0.626708 0.496034
166 2 13.291 5.40722 1.22907 -0.406272 -0.0878994 0.754138
167 2 11.444 5.97277 4.19215 0.147432 -0.551556 0.417077
168 2 12.9283 2.74889 1.27176 -0.468049 -0.0052118 0.5634
169 2 12.4238 0.169842 1.46074 -0.116985 -0.087989 -0.642532
170 2 11.0969 3.44189 3.47136 -0.145074 -0.0633916 0.0547694
171 2 11.8845 8.54415 3.43405 -0.653445 1.21876 0.359403
172 2 19.7195 10.1102 9.02265 0.262645 1.14994 -0.0661505
173 2 19.2499 7.60109 8.90873 0.103506 0.610701 0.40557
174 2 18.3467 5.34991 1.37662 -0.118329 -0.93571 -0.366044
175 2 16.5606 5.94959 4.24019 -0.0967257 0.171395 -0.215436
176 2 18.8243 4.99652 3.88812 0.718562 0.587267 -0.530374
177 2 18.0981 2.69479 1.20585 -0.887496 0.102966 0.290824
178 2 17.4629 0.16346 1.36457 -0.576136 -0.637138 -0.545508
179 2 15.7081 0.814114 4.2835 -0.72808 0.615627 -0.202225
180 2 16.2595 3.45446 3.35502 -0.27707 0.267301 0.489273
181 2 18.6826 7.89834 1.1527 -0.256167 -0.0926081 0.242563
182 2 16.9703 8.56744 3.45602 -0.205028 0.00130901 0.0935768
183 2 17.4598 0.0812773 6.53509 -0.447852 -0.0645962 -0.216178
184 2 15.6877 0.848094 9.39286 0.0667606 -0.566539 0.239255
185 2 18.7103 7.87084 6.29049 -0.0279364 -0.716374 -0.0963644
186 2 18.4133 5.22136 6.47632 -0.297939 0.0665772 -0.150018
187 2 16.5511 6.05985 9.37656 -0.235974 -0.416964 0.0407989
188 2 16.9568 8.52585 8.47853 -0.114868 0.861256 0.785004
189 2 18.8184 5.092 8.99427 0.0154385 0.114647 -0.278627
190 2 17.9782 2.70204 6.42491 -0.723926 -0.190861 -0.0463495
191 2 18.3878 2.46458 9.01312 0.947273 0.112028 0.377129
192 2 16.2184 3.44495 8.57088 -0.42247 0.258824 -0.0766773
193 1 11.8089 19.1086 7.46334 -0.406063 0.500141 0.191185
194 1 11.1677 13.9922 2.41758 -1.36507 0.0771411 -0.117
195 1 10.6856 11.3877 0.30136 -1.11048 -0.233553 -0.190525
196 1 11.7872 19.2474 2.35009 -0.615716 -0.493863 0.280114
197 1 11.4867 16.6742 0.183031 -1.36217 -0.446489 0.342436
198 1 10.6448 11.4379 5.542 -0.956181 0.174257 -0.712245
199 1 11.5212 16.636 5.22104 -1.06653 -0.237834 0.772153
200 1 6.14828 14.189 2.39528 -1.58305 -0.229926 -0.269458
201 1 3.90293 14.4867 4.98715 0.38642 0.238894 0.0513591
202 1 3.39453 11.8907 2.91326 1.10386 0.272734 -0.0359774
203 1 6.90501 19.3118 2.34566 -1.14968 -0.339468 0.397714
204 1 4.58171 19.6904 4.96913 1.01719 0.0188526 -0.247509
205 1 6.79448 19.2691 7.34081 -0.50416 -0.107009 0.762313
206 1 4.16207 17.1072 7.90087 1.27984 -0.0106335 -0.260199
207 1 6.52394 16.7053 5.3047 -1.7426 -0.164393 -0.301304
208 1 6.11119 14.0889 7.50515 -1.21004 0.0206289 0.187141
209 1 3.89776 14.5633 10.1499 0.485073 0.0235842 -0.60321
210 1 3.45776 11.9092 8.11741 0.665513 0.335504 -0.692856
211 1 5.54445 11.4987 5.36341 -0.605075 -0.200713 0.368974
212 1 4.6416 19.6561 10.0547 0.813979 0.205849 0.0460764
213 1 4.16544 17.1633 2.84273 1.66801 -0.61665 -1.05291
214 1 6.36864 16.7293 0.0649531 -0.249189 -0.120623 0.623997
215 1 5.69898 11.5911 0.311492 -1.3652 -0.372508 0.0188088
216 1 9.68981 19.6803 9.99875 0.622347 -0.0748687 0.157962
217 1 8.93989 14.4724 10.0676 0.761903 0.414255 0.316228
218 1 9.70449 19.6813 4.88565 1.20197 0.0215579 0.452278
219 1 9.21328 17.0421 2.71417 1.93181 0.451538 0.393009
220 1 8.9539 14.4633 4.91151 0.447434 -0.00799523 0.582218
221 1 8.50146 11.879 2.82108 1.23232 0.237965 -0.113438
222 1 9.33076 17.0439 7.89548 0.645073 -0.0499657 -0.5574
223 1 11.1404 14.0663 7.5597 -0.790123 0.038159 0.162619
224 1 8.5041 11.8767 7.98091 0.715493 0.109665 -0.614423
225 2 11.8207 12.2244 6.96757 0.676883 -0.552898 -0.153143
226 2 12.7255 17.4525 6.69601 -0.149019 -0.573162 -0.268092
227 2 13.02 19.9805 6.04904 0.619537 -0.476962 0.129317
228 2 12.5184 17.3307 1.75183 0.982571 -0.315869 -0.101487
229 2 10.0507 12.8427 3.9183 0.472021 0.107161 0.306471
230 2 11.8025 12.0297 1.87163 0.402344 -0.0648279 -0.348509
231 2 12.215 14.7229 0.839576 0.378706 -0.00420078 0.372038
232 2 11.3158 20.6264 3.81737 0.431855 0.30393 0.49303
233 2 10.8862 17.989 3.82383 -0.437029 0.574586 0.110911
234 2 13.0132 19.7966 0.896224 0.828637 0.416129 -0.450533
235 2 12.3491 14.841 6.09305 0.0193052 -0.207211 0.15922
236 2 5.36659 15.4016 3.82117 0.456917 1.26996 -0.0770795
237 2 4.95101 12.9168 3.96055 0.725914 -0.179698 -0.179668
238 2 6.86264 12.3362 1.754 -0.134758 -0.613532 -0.441544
239 2 2.23008 11.2306 4.41955 -0.212085 0.10382 -0.168541
240 2 6.22831 20.6263 3.94724 0.52143 0.568317 -0.158555
241 2 5.81867 18.118 3.86494 0.0133852 -0.0980077 -0.377816
242 2 7.63163 17.4429 1.6653 -0.8157 -0.304224 -0.749534
243 2 8.05975 20.0902 0.937144 0.600179 -0.239906 -0.303394
244 2 7.1737 14.8297 0.808635 0.300556 0.285198 -0.185868
245 2 5.27933 18.2892 6.27738 -0.212512 -0.726594 0.633215
246 2 4.9449 15.7048 6.39781 -0.27467 -0.118112 0.306229
247 2 5.8178 18.1637 8.94431 -0.0365944 -0.0549229 -0.261744
248 2 7.62646 17.4609 6.71714 0.431914 -0.344068 0.341376
249 2 2.95392 16.3589 9.31853 0.843823 -0.164478 -0.0229605
250 2 8.09185 20.047 6.06079 -0.282183 0.155569 -0.33925
251 2 5.35532 15.55 8.87968 0.126167 0.179842 0.176425
252 2 4.52127 13.0742 6.5063 -0.737419 -0.0994837 -0.215357
253 2 3.93678 10.4931 6.50943 -0.0177694 0.0609304 -0.228231
254 2 5.09678 12.8945 9.09596 -0.2141 0.673133 -0.253416
255 2 6.77909 12.2233 6.87617 0.430324 -0.300749 -0.575385
256 2 2.23499 11.1521 9.52305 -0.323564 0.247525 -0.0682026
257 2 2.68311 13.7167 8.69554 0.0659414 0.38806 0.108702
258 2 7.19287 14.8464 6.00302 0.54935 -0.466731 -0.00904546
259 2 6.22853 20.6754 8.9576 0.761048 -0.0988333 0.381061
260 2 3.46988 18.9348 8.58555 -0.303645 0.140985 -0.0951481
261 2 5.35373 18.3524 1.17333 -0.440442 -0.626712 0.496035
262 2 4.89154 15.7783 1.22907 -0.406272 -0.0878985 0.754137
263 2 3.04454 16.3439 4.19215 0.147427 -0.551559 0.417082
264 2 4.52884 13.12 1.27176 -0.468052 -0.00521375 0.5634
265 2 4.02433 10.541 1.46074 -0.116982 -0.0879909 -0.642531
266 2 2.69743 13.813 3.47136 -0.145076 -0.0633931 0.0547679
267 2 3.48512 18.9153 3.43405 -0.653445 1.21877 0.359405
268 2 11.32 20.4813 9.02265 0.262637 1.14994 -0.066149
269 2 10.8505 17.9722 8.90873 0.103505 0.6107 0.40557
270 2 9.94726 15.721 1.37662 -0.118328 -0.935711 -0.366044
271 2 8.16119 16.3207 4.24019 -0.096728 0.171399 -0.215434
272 2 10.4249 15.3676 3.88812 0.718561 0.587265 -0.530374
273 2 9.69869 13.0659 1.20585 -0.887495 0.102968 0.290825
274 2 9.06349 10.5346 1.36457 -0.576132 -0.637137 -0.545507
275 2 7.30866 11.1852 4.2835 -0.72808 0.615617 -0.20222
276 2 7.86005 13.8256 3.35502 -0.277074 0.267301 0.489268
277 2 10.2832 18.2695 1.1527 -0.256163 -0.0926068 0.242561
278 2 8.57083 18.9386 3.45602 -0.205025 0.00130916 0.0935811
279 2 9.06038 10.4524 6.53509 -0.447859 -0.0645926 -0.216181
280 2 7.28831 11.2192 9.39286 0.0667553 -0.566541 0.239258
281 2 10.3109 18.242 6.29049 -0.0279277 -0.716371 -0.0963641
282 2 10.0138 15.5925 6.47632 -0.297939 0.0665794 -0.150016
283 2 8.15163 16.431 9.37656 -0.235976 -0.416962 0.0407991
284 2 8.55735 18.897 8.47853 -0.114871 0.861257 0.785005
285 2 10.419 15.4631 8.99427 0.015444 0.114648 -0.278626
286 2 9.57878 13.0732 6.42491 -0.72393 -0.190862 -0.0463476
287 2 9.98832 12.8357 9.01312 0.947269 0.112023 0.377127
288 2 7.81897 13.8161 8.57088 -0.422463 0.258823 -0.0766738
289 1 21.9387 19.1086 7.46334 -0.406064 0.500143 0.191186
290 1 21.2975 13.9922 2.41758 -1.36507 0.0771399 -0.116996
291 1 20.8154 11.3877 0.30136 -1.11048 -0.233554 -0.190529
292 1 21.917 19.2474 2.35009 -0.615716 -0.493863 0.280113
293 1 21.6165 16.6742 0.183031 -1.36217 -0.446487 0.342436
294 1 20.7746 11.4379 5.542 -0.956184 0.174256 -0.712243
295 1 21.651 16.636 5.22104 -1.06652 -0.237836 0.772149
296 1 16.2781 14.189 2.39528 -1.58305 -0.229927 -0.269459
297 1 14.0327 14.4867 4.98715 0.386417 0.238894 0.0513573
298 1 13.5243 11.8907 2.91326 1.10386 0.272733 -0.0359745
299 1 17.0348 19.3118 2.34566 -1.14969 -0.339471 0.397716
300 1 14.7115 19.6904 4.96913 1.01719 0.0188527 -0.24751
301 1 16.9243 19.2691 7.34081 -0.504163 -0.10701 0.762314
302 1 14.2919 17.1072 7.90087 1.27984 -0.0106352 -0.260199
303 1 16.6537 16.7053 5.3047 -1.7426 -0.164393 -0.301305
304 1 16.241 14.0889 7.50515 -1.21004 0.0206289 0.187142
305 1 14.0275 14.5633 10.1499 0.485073 0.0235829 -0.60321
306 1 13.5875 11.9092 8.11741 0.66551 0.335505 -0.692856
307 1 15.6742 11.4987 5.36341 -0.605075 -0.200713 0.368974
308 1 14.7714 19.6561 10.0547 0.813977 0.205849 0.0460762
309 1 14.2952 17.1633 2.84273 1.66801 -0.616653 -1.05291
310 1 16.4984 16.7293 0.0649531 -0.249188 -0.120622 0.623998
311 1 15.8288 11.5911 0.311492 -1.3652 -0.372507 0.0188096
312 1 19.8196 19.6803 9.99875 0.622343 -0.0748701 0.157961
313 1 19.0697 14.4724 10.0676 0.761903 0.414256 0.316228
314 1 19.8343 19.6813 4.88565 1.20197 0.0215546 0.45228
315 1 19.3431 17.0421 2.71417 1.93181 0.451537 0.393007
316 1 19.0837 14.4633 4.91151 0.447435 -0.00799545 0.582221
317 1 18.6312 11.879 2.82108 1.23232 0.237963 -0.113441
318 1 19.4605 17.0439 7.89548 0.64507 -0.0499647 -0.557398
319 1 21.2702 14.0663 7.5597 -0.790122 0.0381594 0.162617
320 1 18.6339 11.8767 7.98091 0.715493 0.109665 -0.614426
321 2 21.9505 12.2244 6.96757 0.676877 -0.552894 -0.153143
322 2 22.8553 17.4525 6.69601 -0.149012 -0.573164 -0.26809
323 2 23.1498 19.9805 6.04904 0.619529 -0.476965 0.129322
324 2 22.6482 17.3307 1.75183 0.982573 -0.315869 -0.101487
325 2 20.1805 12.8427 3.9183 0.472028 0.107159 0.30647
326 2 21.9323 12.0297 1.87163 0.402354 -0.0648273 -0.348502
327 2 22.3447 14.7229 0.839576 0.378706 -0.00420145 0.372038
328 2 21.4456 20.6264 3.81737 0.431857 0.303931 0.493031
329 2 21.016 17.989 3.82383 -0.437026 0.574585 0.110913
330 2 23.1429 19.7966 0.896224 0.828632 0.41613 -0.450529
331 2 22.4789 14.841 6.09305 0.0192972 -0.207211 0.159223
332 2 15.4964 15.4016 3.82117 0.456917 1.26996 -0.0770776
333 2 15.0808 12.9168 3.96055 0.725914 -0.179697 -0.179667
334 2 16.9924 12.3362 1.754 -0.134764 -0.61353 -0.441548
335 2 12.3599 11.2306 4.41955 -0.212087 0.103819 -0.168537
336 2 16.3581 20.6263 3.94724 0.521426 0.568315 -0.158555
337 2 15.9485 18.118 3.86494 0.0133867 -0.0980088 -0.377815
338 2 17.7614 17.4429 1.6653 -0.815705 -0.304223 -0.749534
339 2 18.1895 20.0902 0.937144 0.600188 -0.239905 -0.303396
340 2 17.3035 14.8297 0.808635 0.300553 0.285198 -0.185864
341 2 15.4091 18.2892 6.27738 -0.212508 -0.726594 0.633213
342 2 15.0747 15.7048 6.39781 -0.274671 -0.118113 0.306227
343 2 15.9476 18.1637 8.94431 -0.0365984 -0.0549217 -0.261742
344 2 17.7562 17.4609 6.71714 0.431911 -0.344071 0.341373
345 2 13.0837 16.3589 9.31853 0.843821 -0.164479 -0.0229571
346 2 18.2216 20.047 6.06079 -0.282176 0.155568 -0.339251
347 2 15.4851 15.55 8.87968 0.126166 0.179842 0.176424
348 2 14.6511 13.0742 6.5063 -0.73742 -0.0994827 -0.215358
349 2 14.0666 10.4931 6.50943 -0.0177694 0.0609309 -0.22823
350 2 15.2266 12.8945 9.09596 -0.214097 0.673132 -0.253416
351 2 16.9089 12.2233 6.87617 0.430323 -0.30075 -0.575385
352 2 12.3648 11.1521 9.52305 -0.323562 0.247527 -0.068205
353 2 12.8129 13.7167 8.69554 0.065943 0.388059 0.1087
354 2 17.3227 14.8464 6.00302 0.549345 -0.466729 -0.00904479
355 2 16.3583 20.6754 8.9576 0.761046 -0.098833 0.381061
356 2 13.5997 18.9348 8.58555 -0.303644 0.14099 -0.0951462
357 2 15.4835 18.3524 1.17333 -0.440443 -0.62671 0.496033
358 2 15.0213 15.7783 1.22907 -0.40627 -0.0878987 0.754137
359 2 13.1743 16.3439 4.19215 0.147436 -0.551562 0.417078
360 2 14.6586 13.12 1.27176 -0.468049 -0.00521346 0.563398
361 2 14.1541 10.541 1.46074 -0.11698 -0.0879919 -0.642532
362 2 12.8272 13.813 3.47136 -0.145072 -0.0633915 0.0547723
363 2 13.6149 18.9153 3.43405 -0.653449 1.21877 0.359405
364 2 21.4498 20.4813 9.02265 0.262637 1.14994 -0.0661495
365 2 20.9802 17.9722 8.90873 0.10351 0.610704 0.405572
366 2 20.077 15.721 1.37662 -0.118329 -0.935713 -0.366042
367 2 18.291 16.3207 4.24019 -0.0967376 0.171402 -0.215429
368 2 20.5547 15.3676 3.88812 0.718569 0.587266 -0.530376
369 2 19.8285 13.0659 1.20585 -0.887492 0.10297 0.290828
370 2 19.1933 10.5346 1.36457 -0.576133 -0.637137 -0.545507
371 2 17.4384 11.1852 4.2835 -0.728082 0.615617 -0.202218
372 2 17.9898 13.8256 3.35502 -0.277082 0.267303 0.489266
373 2 20.413 18.2695 1.1527 -0.256163 -0.0926029 0.242557
374 2 18.7006 18.9386 3.45602 -0.205025 0.00131109 0.0935808
375 2 19.1902 10.4524 6.53509 -0.447859 -0.0645943 -0.21618
376 2 17.4181 11.2192 9.39286 0.0667497 -0.56654 0.239262
377 2 20.4407 18.242 6.29049 -0.0279293 -0.716371 -0.0963644
378 2 20.1436 15.5925 6.47632 -0.297934 0.0665771 -0.150015
379 2 18.2814 16.431 9.37656 -0.235973 -0.41696 0.0407953
380 2 18.6871 18.897 8.47853 -0.114864 0.861256 0.785007
381 2 20.5488 15.4631 8.99427 0.0154439 0.114648 -0.278628
382 2 19.7086 13.0732 6.42491 -0.723929 -0.190863 -0.0463463
383 2 20.1181 12.8357 9.01312 0.947276 0.112023 0.377124
384 2 17.9488 13.8161 8.57088 -0.422466 0.258823 -0.0766757
385 1 10.0786 8.73753 17.7265 -0.40606 0.500141 0.191191
386 1 9.43739 3.62109 12.6807 -1.36507 0.0771431 -0.117
387 1 8.95523 1.01658 10.5645 -1.11048 -0.233554 -0.190525
388 1 10.0568 8.87631 12.6132 -0.615719 -0.493867 0.280119
389 1 9.75639 6.30305 10.4462 -1.36217 -0.446493 0.342434
390 1 8.91444 1.06675 15.8051 -0.956185 0.174257 -0.712242
391 1 9.79081 6.26491 15.4842 -1.06653 -0.237835 0.772154
392 1 4.41793 3.81789 12.6584 -1.58304 -0.229927 -0.269456
393 1 2.17257 4.11563 15.2503 0.386414 0.238892 0.0513607
394 1 1.66418 1.51957 13.1764 1.10386 0.272733 -0.0359745
395 1 5.17465 8.94063 12.6088 -1.14969 -0.339467 0.397717
396 1 2.85135 9.31926 15.2323 1.01719 0.0188487 -0.247508
397 1 5.06412 8.89798 17.604 -0.504163 -0.107013 0.762314
398 1 2.43172 6.7361 18.164 1.27984 -0.0106356 -0.260197
399 1 4.79358 6.33415 15.5678 -1.7426 -0.164392 -0.301304
400 1 4.38084 3.71777 17.7683 -1.21004 0.0206265 0.18714
401 1 2.1674 4.19219 20.413 0.485068 0.0235834 -0.603206
402 1 1.7274 1.53805 18.3806 0.665505 0.335505 -0.692856
403 1 3.8141 1.1276 15.6266 -0.605074 -0.200713 0.368974
404 1 2.91125 9.28503 20.3179 0.813976 0.205853 0.0460754
405 1 2.43509 6.79223 13.1059 1.66801 -0.616648 -1.0529
406 1 4.63829 6.35818 10.3281 -0.249189 -0.120625 0.624
407 1 3.96862 1.21993 10.5746 -1.36521 -0.372505 0.0188089
408 1 7.95946 9.3092 20.2619 0.622346 -0.0748699 0.157962
409 1 7.20954 4.10125 20.3307 0.7619 0.414254 0.316229
410 1 7.97413 9.3102 15.1488 1.20197 0.0215666 0.452279
411 1 7.48292 6.67095 12.9773 1.93181 0.451541 0.393009
412 1 7.22354 4.09214 15.1747 0.447434 -0.00799481 0.582219
413 1 6.7711 1.50791 13.0842 1.23232 0.237967 -0.113439
414 1 7.6004 6.67279 18.1586 0.645071 -0.0499636 -0.5574
415 1 9.41002 3.69516 17.8228 -0.790123 0.0381599 0.162615
416 1 6.77375 1.5056 18.2441 0.71549 0.109666 -0.614425
417 2 10.0903 1.85325 17.2307 0.676875 -0.552894 -0.153148
418 2 10.9951 7.08138 16.9592 -0.149015 -0.573166 -0.268095
419 2 11.2897 9.60939 16.3122 0.61954 -0.476963 0.12932
420 2 10.788 6.95961 12.015 0.98257 -0.315868 -0.101486
421 2 8.32036 2.47159 14.1814 0.472019 0.107164 0.306472
422 2 10.0721 1.65855 12.1348 0.402348 -0.0648288 -0.348505
423 2 10.4846 4.35174 11.1027 0.378699 -0.00419755 0.372042
424 2 9.58544 10.2553 14.0805 0.431849 0.30393 0.49303
425 2 9.15582 7.61786 14.087 -0.43703 0.574593 0.110906
426 2 11.2828 9.42551 11.1594 0.828643 0.416132 -0.450546
427 2 10.6187 4.46991 16.3562 0.0192972 -0.207215 0.159227
428 2 3.63624 5.03045 14.0843 0.45692 1.26996 -0.0770807
429 2 3.22065 2.54566 14.2237 0.725912 -0.179691 -0.179665
430 2 5.13228 1.96509 12.0171 -0.134757 -0.613526 -0.441542
431 2 0.499723 0.85951 14.6827 -0.212091 0.103826 -0.168541
432 2 4.49795 10.2551 14.2104 0.521435 0.56832 -0.15856
433 2 4.08832 7.74684 14.1281 0.0133869 -0.0980067 -0.377815
434 2 5.90127 7.07174 11.9284 -0.815701 -0.304231 -0.749533
435 2 6.32939 9.71905 11.2003 0.600179 -0.239892 -0.303398
436 2 5.44335 4.45855 11.0718 0.300554 0.285199 -0.185864
437 2 3.54898 7.91811 16.5405 -0.212511 -0.726593 0.633214
438 2 3.21455 5.3337 16.661 -0.274674 -0.118117 0.30623
439 2 4.08744 7.79256 19.2074 -0.0365976 -0.0549183 -0.261743
440 2 5.89611 7.08976 16.9803 0.431915 -0.34407 0.341374
441 2 1.22356 5.98776 19.5817 0.843819 -0.16448 -0.0229536
442 2 6.3615 9.67587 16.3239 -0.282176 0.155575 -0.339257
443 2 3.62497 5.17884 19.1428 0.126167 0.179837 0.176424
444 2 2.79092 2.70312 16.7694 -0.737421 -0.0994791 -0.215356
445 2 2.20642 0.121993 16.7726 -0.0177659 0.0609287 -0.228228
446 2 3.36642 2.52336 19.3591 -0.214099 0.673137 -0.253414
447 2 5.04873 1.85222 17.1393 0.430326 -0.300743 -0.575381
448 2 0.504634 0.781011 19.7862 -0.323557 0.247543 -0.068208
449 2 0.952754 3.34557 18.9587 0.0659441 0.388059 0.108703
450 2 5.46251 4.47528 16.2662 0.54935 -0.466732 -0.0090462
451 2 4.49818 10.3043 19.2207 0.761046 -0.0988289 0.381062
452 2 1.73952 8.56369 18.8487 -0.303646 0.140994 -0.0951469
453 2 3.62337 7.98128 11.4365 -0.440445 -0.626706 0.496033
454 2 3.16119 5.40722 11.4922 -0.40627 -0.0878993 0.754139
455 2 1.31419 5.97277 14.4553 0.147431 -0.551556 0.41708
456 2 2.79848 2.74889 11.5349 -0.468051 -0.00521159 0.5634
457 2 2.29398 0.169842 11.7239 -0.116983 -0.087989 -0.642532
458 2 0.967076 3.44189 13.7345 -0.145071 -0.0633923 0.0547734
459 2 1.75476 8.54415 13.6972 -0.653446 1.21877 0.359405
460 2 9.58968 10.1102 19.2858 0.262638 1.14994 -0.066148
461 2 9.1201 7.60109 19.1719 0.103508 0.610704 0.40557
462 2 8.21691 5.34991 11.6398 -0.118327 -0.935713 -0.366047
463 2 6.43084 5.94959 14.5033 -0.0967339 0.171395 -0.21543
464 2 8.69455 4.99652 14.1513 0.718564 0.587265 -0.530376
465 2 7.96834 2.69479 11.469 -0.887496 0.102968 0.290827
466 2 7.33314 0.16346 11.6277 -0.576127 -0.637138 -0.545509
467 2 5.57831 0.814114 14.5466 -0.728077 0.615624 -0.202224
468 2 6.1297 3.45446 13.6182 -0.277078 0.267302 0.489267
469 2 8.55281 7.89834 11.4158 -0.25616 -0.0926089 0.242565
470 2 6.84048 8.56744 13.7192 -0.205024 0.00131089 0.0935793
471 2 7.33002 0.0812773 16.7982 -0.447852 -0.0645949 -0.216183
472 2 5.55796 0.848094 19.656 0.0667526 -0.566537 0.239258
473 2 8.58051 7.87084 16.5536 -0.0279305 -0.716374 -0.0963631
474 2 8.28348 5.22136 16.7395 -0.297936 0.066576 -0.150016
475 2 6.42128 6.05985 19.6397 -0.235979 -0.416967 0.0408069
476 2 6.82699 8.52585 18.7417 -0.114865 0.861257 0.785008
477 2 8.68866 5.092 19.2574 0.0154469 0.114646 -0.278632
478 2 7.84842 2.70204 16.6881 -0.723926 -0.190862 -0.0463462
479 2 8.25797 2.46458 19.2763 0.947272 0.11203 0.377132
480 2 6.08861 3.44495 18.834 -0.422467 0.258823 -0.0766763
481 1 20.2084 8.73753 17.7265 -0.406058 0.500142 0.19119
482 1 19.5672 3.62109 12.6807 -1.36507 0.0771422 -0.117
483 1 19.085 1.01658 10.5645 -1.11048 -0.233553 -0.190526
484 1 20.1866 8.87631 12.6132 -0.615721 -0.493869 0.280121
485 1 19.8862 6.30305 10.4462 -1.36217 -0.446493 0.342438
486 1 19.0442 1.06675 15.8051 -0.956177 0.174254 -0.712244
487 1 19.9206 6.26491 15.4842 -1.06652 -0.237833 0.772151
488 1 14.5477 3.81789 12.6584 -1.58305 -0.229927 -0.269459
489 1 12.3024 4.11563 15.2503 0.386421 0.238891 0.0513584
490 1 11.794 1.51957 13.1764 1.10386 0.272733 -0.0359754
491 1 15.3044 8.94063 12.6088 -1.14969 -0.339466 0.397718
492 1 12.9811 9.31926 15.2323 1.01719 0.0188489 -0.247507
493 1 15.1939 8.89798 17.604 -0.504165 -0.107012 0.762316
494 1 12.5615 6.7361 18.164 1.27984 -0.0106349 -0.260197
495 1 14.9234 6.33415 15.5678 -1.74261 -0.164391 -0.301305
496 1 14.5106 3.71777 17.7683 -1.21004 0.0206273 0.187142
497 1 12.2972 4.19219 20.413 0.48507 0.0235828 -0.603207
498 1 11.8572 1.53805 18.3806 0.665508 0.335506 -0.692852
499 1 13.9439 1.1276 15.6266 -0.605073 -0.200712 0.368974
500 1 13.041 9.28503 20.3179 0.813974 0.205854 0.0460761
501 1 12.5649 6.79223 13.1059 1.66801 -0.616648 -1.0529
502 1 14.7681 6.35818 10.3281 -0.249189 -0.120624 0.623999
503 1 14.0984 1.21993 10.5746 -1.36521 -0.372502 0.0188096
504 1 18.0892 9.3092 20.2619 0.622345 -0.0748706 0.157965
505 1 17.3393 4.10125 20.3307 0.761901 0.414257 0.316228
506 1 18.1039 9.3102 15.1488 1.20198 0.0215664 0.452281
507 1 17.6127 6.67095 12.9773 1.93182 0.45154 0.393009
508 1 17.3533 4.09214 15.1747 0.447432 -0.0079946 0.582217
509 1 16.9009 1.50791 13.0842 1.23231 0.237968 -0.113441
510 1 17.7302 6.67279 18.1586 0.645072 -0.049965 -0.557401